chemcompute.org
{'UTCtimestamp': '2022-10-03T21:45:46.834358', 'cluster': 'jetstream2', 'clusterJobNumber': '120487', 'status': 'RUNNING', 'nodeList': 'chemcompute-node-1'}
----- GAMESS execution script 'rungms' -----
This job is running on host chemcompute-node-1.novalocal
under operating system Linux at Mon Oct 3 21:45:50 UTC 2022
SLURM has assigned the following compute nodes to this run:
Available scratch disk space (Kbyte units) at beginning of the job is
Filesystem     1K-blocks     Used Available Use% Mounted on
/dev/sda1       62903276 11425860  51477416  19% /
GAMESS temporary binary files will be written to /scratch/120487
GAMESS supplementary output files will be written to /data/slurm/46/460056
Copying input file 460056.inp to your run's scratch directory...
The generated host list is
chemcompute-node-1.novalocal

 Distributed Data Interface kickoff program.
 Initiating 1 compute processes on 1 nodes to run the following command:
 /data/gamess-2019R1-avx2-ddi/gamess.00.x 460056 

          ******************************************************
          *         GAMESS VERSION = 30 JUN 2019 (R1)          *
          *             FROM IOWA STATE UNIVERSITY             *
          * M.W.SCHMIDT, K.K.BALDRIDGE, J.A.BOATZ, S.T.ELBERT, *
          *   M.S.GORDON, J.H.JENSEN, S.KOSEKI, N.MATSUNAGA,   *
          *          K.A.NGUYEN, S.J.SU, T.L.WINDUS,           *
          *       TOGETHER WITH M.DUPUIS, J.A.MONTGOMERY       *
          *         J.COMPUT.CHEM.  14, 1347-1363(1993)        *
          **************** 64 BIT INTEL VERSION ****************

  SINCE 1993, STUDENTS AND POSTDOCS WORKING AT IOWA STATE UNIVERSITY
  AND ALSO IN THEIR VARIOUS JOBS AFTER LEAVING ISU HAVE MADE IMPORTANT
  CONTRIBUTIONS TO THE CODE:
     IVANA ADAMOVIC, CHRISTINE AIKENS, YURI ALEXEEV, POOJA ARORA,
     ANDREY ASADCHEV, ROB BELL, PRADIPTA BANDYOPADHYAY, JONATHAN BENTZ,
     COLLEEN BERTONI, BRETT BODE, KURT BRORSEN, CALEB CARLIN, GALINA CHABAN,
     WEI CHEN, CHEOL HO CHOI, PAUL DAY, ALBERT DEFUSCO, NUWAN DESILVA,
     TIM DUDLEY, DMITRI FEDOROV, ALEX FINDLATER, GRAHAM FLETCHER, 
     MARK FREITAG, KURT GLAESEMANN, ANASTASIA GUNINA,
     DAN KEMP, GRANT MERRILL, NORIYUKI MINEZAWA, JONATHAN MULLIN,
     TAKESHI NAGATA, SEAN NEDD, HEATHER NETZLOFF, BOSILJKA NJEGIC, RYAN OLSON,
     MIKE PAK, BUU PHAM,
     SPENCER PRUITT, LUKE ROSKOP, JIM SHOEMAKER, LYUDMILA SLIPCHENKO,
     TONY SMITH, SAROM SOK LEANG, JIE SONG, TETSUYA TAKETSUGU, SIMON WEBB,
     PENG XU, SOOHAENG YOO, FEDERICO ZAHARIEV

  ADDITIONAL CODE HAS BEEN PROVIDED BY COLLABORATORS IN OTHER GROUPS:
     IOWA STATE UNIVERSITY:
          JOE IVANIC, AARON WEST, LAIMUTIS BYTAUTAS, KLAUS RUEDENBERG
     UNIVERSITY OF TOKYO: KIMIHIKO HIRAO, TAKAHITO NAKAJIMA,
          TAKAO TSUNEDA, MUNEAKI KAMIYA, SUSUMU YANAGISAWA,
          KIYOSHI YAGI, MAHITO CHIBA, SEIKEN TOKURA, NAOAKI KAWAKAMI
     UNIVERSITY OF AARHUS: FRANK JENSEN
     UNIVERSITY OF IOWA: VISVALDAS KAIRYS, HUI LI
     NATIONAL INST. OF STANDARDS AND TECHNOLOGY: WALT STEVENS, DAVID GARMER
     UNIVERSITY OF PISA: BENEDETTA MENNUCCI, JACOPO TOMASI
     UNIVERSITY OF MEMPHIS: HENRY KURTZ, PRAKASHAN KORAMBATH
     UNIVERSITY OF ALBERTA: TOBY ZENG, MARIUSZ KLOBUKOWSKI
     UNIVERSITY OF NEW ENGLAND: MARK SPACKMAN
     MIE UNIVERSITY: HIROAKI UMEDA
     NAT. INST. OF ADVANCED INDUSTRIAL SCIENCE AND TECHNOLOGY: KAZUO KITAURA
     MICHIGAN STATE UNIVERSITY:
          KAROL KOWALSKI, MARTA WLOCH, JEFFREY GOUR, JESSE LUTZ,
          WEI LI, JUN SHEN, J. EMILIANO DEUSTUA, PIOTR PIECUCH
     UNIVERSITY OF MINNESOTA:
          YINAN SHU
     UNIVERSITY OF SILESIA: MONIKA MUSIAL, STANISLAW KUCHARSKI
     FACULTES UNIVERSITAIRES NOTRE-DAME DE LA PAIX:
          OLIVIER QUINET, BENOIT CHAMPAGNE
     UNIVERSITY OF CALIFORNIA - SANTA BARBARA: BERNARD KIRTMAN
     INSTITUTE FOR MOLECULAR SCIENCE:
          KAZUYA ISHIMURA, MICHIO KATOUDA, AND SHIGERU NAGASE
     UNIVERSITY OF NOTRE DAME: ANNA POMOGAEVA, DAN CHIPMAN
     KYUSHU UNIVERSITY:
          HARUYUKI NAKANO,
          FENG LONG GU, JACEK KORCHOWIEC, MARCIN MAKOWSKI, AND YURIKO AOKI,
          HIROTOSHI MORI AND EISAKU MIYOSHI
     PENNSYLVANIA STATE UNIVERSITY:
          TZVETELIN IORDANOV, CHET SWALINA, JONATHAN SKONE,
          SHARON HAMMES-SCHIFFER
     WASEDA UNIVERSITY:
          MASATO KOBAYASHI, TOMOKO AKAMA, TSUGUKI TOUMA,
          TAKESHI YOSHIKAWA, YASUHIRO IKABATA, JUNJI SEINO,
          YUYA NAKAJIMA, HIROMI NAKAI
     NANJING UNIVERSITY: SHUHUA LI
     UNIVERSITY OF NEBRASKA:
          PEIFENG SU, DEJUN SI, NANDUN THELLAMUREGE, YALI WANG, HUI LI
     UNIVERSITY OF ZURICH: ROBERTO PEVERATI, KIM BALDRIDGE
     N. COPERNICUS UNIVERSITY AND JACKSON STATE UNIVERSITY:
          MARIA BARYSZ
     UNIVERSITY OF COPENHAGEN: Jimmy Kromann, CASPER STEINMANN
     TOKYO INSTITUTE OF TECHNOLOGY: HIROYA NAKATA
     NAGOYA UNIVERSITY: YOSHIO NISHIMOTO, STEPHAN IRLE
     MOSCOW STATE UNIVERSITY: VLADIMIR MIRONOV
     A.N.NESMEYANOV INSTITUTE OF ORGANOELEMENT COMPOUNDS OF RUSSIAN ACADEMY OF SCIENCES:
          IGOR S. GERASIMOV

 EXECUTION OF GAMESS BEGUN Mon Oct  3 21:45:50 2022

            ECHO OF THE FIRST FEW INPUT CARDS -
 INPUT CARD>!                                                                               
 INPUT CARD>!   GAMESS Calculation input file                                               
 INPUT CARD>!                                                                               
 INPUT CARD>!                                                                               
 INPUT CARD> $CONTRL SCFTYP=RHF MAXIT=200 RUNTYP=OPTIMIZE                                   
 INPUT CARD>         COORD=UNIQUE MULT=1                                                    
 INPUT CARD>         ICHARG=0                                                               
 INPUT CARD>         DFTTYP=B3LYP                                                           
 INPUT CARD>         MOLPLT=.FALSE. PLTORB=.FALSE.  $END                                    
 INPUT CARD> $SYSTEM TIMLIM=2879 MWORDS=250  $END                                           
 INPUT CARD>                                                                                
 INPUT CARD> $FORCE METHOD=SEMINUM NVIB=2 $END                                              
 INPUT CARD> $STATPT OPTTOL=0.0005 NSTEP=999 $END                                           
 INPUT CARD> $STATPT IHREP=0 HSSEND=.TRUE.  $END                                            
 INPUT CARD>                                                                                
 INPUT CARD> $DFT    METHOD=GRID  NLEB=590  $END                                            
 INPUT CARD>                                                                                
 INPUT CARD> $BASIS  GBASIS=N31 NGAUSS=6                                                    
 INPUT CARD>         NDFUNC=1   NPFUNC=0  $END                                              
 INPUT CARD>                                                                                
 INPUT CARD> $SCF    DIRSCF=.T. $END                                                        
 INPUT CARD> $GUESS  GUESS=HUCKEL  $END                                                     
 INPUT CARD>                                                                                
 INPUT CARD> $DATA                                                                          
 INPUT CARD>                                                                                
 INPUT CARD>  Cs                                                                            
 INPUT CARD>                                                                                
 INPUT CARD>C     6.0    -0.59     0.26     0.00                                            
 INPUT CARD>N     7.0     0.57    -0.32    -0.00                                            
 INPUT CARD>H     1.0    -1.51    -0.34     0.00                                            
 INPUT CARD>H     1.0    -0.69     1.36     0.00                                            
 INPUT CARD>H     1.0     1.32     0.38    -0.00                                            
 INPUT CARD> $END                                                                           
 INPUT CARD>                                                                                
 INPUT CARD>                                                                                
 INPUT CARD>! Customizations after this line are persisted when using Do More Calculations  
  250000000 WORDS OF MEMORY AVAILABLE

     BASIS OPTIONS
     -------------
     GBASIS=N31          IGAUSS=       6      POLAR=POPN31  
     NDFUNC=       1     NFFUNC=       0     DIFFSP=       F
     NPFUNC=       0      DIFFS=       F     BASNAM=        


     RUN TITLE
     ---------
                                                                                 

 THE POINT GROUP OF THE MOLECULE IS CS      
 THE ORDER OF THE PRINCIPAL AXIS IS     0

 ATOM      ATOMIC                      COORDINATES (BOHR)
           CHARGE         X                   Y                   Z
 C           6.0    -1.1149383328        0.4913287568        0.0000000000
 N           7.0     1.0771438130       -0.6047123161        0.0000000000
 H           1.0    -2.8534862415       -0.6425068358        0.0000000000
 H           1.0    -1.3039109315        2.5700273433        0.0000000000
 H           1.0     2.4944383038        0.7180958753        0.0000000000

          INTERNUCLEAR DISTANCES (ANGS.)
          ------------------------------

                1 C          2 N          3 H          4 H          5 H     

   1 C       0.0000000    1.2969194 *  1.0983624 *  1.1045361 *  1.9137659 *
   2 N       1.2969194 *  0.0000000    2.0800962 *  2.1000000 *  1.0259142 *
   3 H       1.0983624 *  2.0800962 *  0.0000000    1.8874321 *  2.9201541 *
   4 H       1.1045361 *  2.1000000 *  1.8874321 *  0.0000000    2.2361798 *
   5 H       1.9137659 *  1.0259142 *  2.9201541 *  2.2361798 *  0.0000000  

  * ... LESS THAN  3.000


     ATOMIC BASIS SET
     ----------------
 THE CONTRACTED PRIMITIVE FUNCTIONS HAVE BEEN UNNORMALIZED
 THE CONTRACTED BASIS FUNCTIONS ARE NOW NORMALIZED TO UNITY

  SHELL TYPE  PRIMITIVE        EXPONENT          CONTRACTION COEFFICIENT(S)

 C         

      1   S       1          3047.5248800    0.001834737132
      1   S       2           457.3695180    0.014037322813
      1   S       3           103.9486850    0.068842622264
      1   S       4            29.2101553    0.232184443216
      1   S       5             9.2866630    0.467941348435
      1   S       6             3.1639270    0.362311985337

      2   L       7             7.8682723   -0.119332419775    0.068999066591
      2   L       8             1.8812885   -0.160854151696    0.316423960957
      2   L       9             0.5442493    1.143456437840    0.744308290898

      3   L      10             0.1687145    1.000000000000    1.000000000000

      4   D      11             0.8000000    1.000000000000

 N         

      5   S      12          4173.5114600    0.001834772160
      5   S      13           627.4579110    0.013994627002
      5   S      14           142.9020930    0.068586551812
      5   S      15            40.2343293    0.232240873040
      5   S      16            12.8202129    0.469069948082
      5   S      17             4.3904370    0.360455199063

      6   L      18            11.6263619   -0.114961181702    0.067579743878
      6   L      19             2.7162798   -0.169117478561    0.323907295893
      6   L      20             0.7722184    1.145851947027    0.740895139755

      7   L      21             0.2120315    1.000000000000    1.000000000000

      8   D      22             0.8000000    1.000000000000

 H         

      9   S      23            18.7311370    0.033494604338
      9   S      24             2.8253944    0.234726953484
      9   S      25             0.6401217    0.813757326146

     10   S      26             0.1612778    1.000000000000

 H         

     11   S      27            18.7311370    0.033494604338
     11   S      28             2.8253944    0.234726953484
     11   S      29             0.6401217    0.813757326146

     12   S      30             0.1612778    1.000000000000

 H         

     13   S      31            18.7311370    0.033494604338
     13   S      32             2.8253944    0.234726953484
     13   S      33             0.6401217    0.813757326146

     14   S      34             0.1612778    1.000000000000

 TOTAL NUMBER OF BASIS SET SHELLS             =   14
 NUMBER OF CARTESIAN GAUSSIAN BASIS FUNCTIONS =   36
 NUMBER OF ELECTRONS                          =   16
 CHARGE OF MOLECULE                           =    0
 SPIN MULTIPLICITY                            =    1
 NUMBER OF OCCUPIED ORBITALS (ALPHA)          =    8
 NUMBER OF OCCUPIED ORBITALS (BETA )          =    8
 TOTAL NUMBER OF ATOMS                        =    5
 THE NUCLEAR REPULSION ENERGY IS       32.4150906501

 SELECTED MURRAY-HANDY-LAMING RADIAL GRID

 LEGACY BECKE'S FUZZY CELL METHOD

 SELECTED ORIGINAL BECKE'S PARTITION FUNCTION

     LEBEDEV GRID-BASED DFT OPTIONS
     ------------------------------
     DFTTYP=B3LYP   
     NRAD  =      96     NLEB  =     590
     NRAD0 =      24     NLEB0 =     110
     SWOFF =    5.00E-03 (PURE SCF -> DFT)
     SWITCH=    3.00E-04 (COARSE -> TIGHT GRID)
     THRESH=    0.00E+00 GTHRE=    1.00E+00

 GRIMME'S EMPIRICAL DISPERSION CORRECTION= F

     $CONTRL OPTIONS
     ---------------
 SCFTYP=RHF          RUNTYP=OPTIMIZE     EXETYP=RUN     
 MPLEVL=       0     CITYP =NONE         CCTYP =NONE         VBTYP =NONE    
 DFTTYP=B3LYP        TDDFT =NONE    
 MULT  =       1     ICHARG=       0     NZVAR =       0     COORD =UNIQUE  
 PP    =NONE         RELWFN=NONE         LOCAL =NONE         NUMGRD=       F
 ISPHER=      -1     NOSYM =       0     MAXIT =     200     UNITS =ANGS    
 PLTORB=       F     MOLPLT=       F     AIMPAC=       F     FRIEND=        
 NPRINT=       7     IREST =       0     GEOM  =INPUT   
 NORMF =       0     NORMP =       0     ITOL  =      20     ICUT  =       9
 INTTYP=BEST         GRDTYP=BEST         QMTTOL= 1.0E-06

     $SYSTEM OPTIONS
     ---------------
  REPLICATED MEMORY=   250000000 WORDS (ON EVERY NODE).
 DISTRIBUTED MEMDDI=           0 MILLION WORDS IN AGGREGATE,
 MEMDDI DISTRIBUTED OVER   1 PROCESSORS IS           0 WORDS/PROCESSOR.
 TOTAL MEMORY REQUESTED ON EACH PROCESSOR=   250000000 WORDS.
 TIMLIM=        2879.00 MINUTES, OR       2.0 DAYS.
 PARALL= F  BALTYP=  DLB     KDIAG=    0  COREFL= F
 MXSEQ2=     300 MXSEQ3=     150  mem10=         0

          ----------------
          PROPERTIES INPUT
          ----------------

     MOMENTS            FIELD           POTENTIAL          DENSITY
 IEMOM =       1   IEFLD =       0   IEPOT =       0   IEDEN =       0
 WHERE =COMASS     WHERE =NUCLEI     WHERE =NUCLEI     WHERE =NUCLEI  
 OUTPUT=BOTH       OUTPUT=BOTH       OUTPUT=BOTH       OUTPUT=BOTH    
 IEMINT=       0   IEFINT=       0                     IEDINT=       0
                                                       MORB  =       0
          EXTRAPOLATION IN EFFECT
          DIIS IN EFFECT
 ORBITAL PRINTING OPTION: NPREO=     1    36     2     1

     -------------------------------
     INTEGRAL TRANSFORMATION OPTIONS
     -------------------------------
     NWORD  =            0
     CUTOFF = 1.0E-09     MPTRAN =       0
     DIRTRF =       T     AOINTS =DUP     

          ----------------------
          INTEGRAL INPUT OPTIONS
          ----------------------
 NOPK  =       1 NORDER=       0 SCHWRZ=       T

     ------------------------------------------
     THE POINT GROUP IS CS , NAXIS= 0, ORDER= 2
     ------------------------------------------

     DIMENSIONS OF THE SYMMETRY SUBSPACES ARE
 A'  =   28     A'' =    8

 ..... DONE SETTING UP THE RUN .....
 STEP CPU TIME =     0.01 TOTAL CPU TIME =          0.0 (      0.0 MIN)
 TOTAL WALL CLOCK TIME=          0.0 SECONDS, CPU UTILIZATION IS    50.00%


          -----------------------------
          STATIONARY POINT LOCATION RUN
          -----------------------------

 OBTAINING INITIAL HESSIAN, HESS=GUESS   
 CARTESIAN COORDINATE OPTIMIZATION USING BADGER'S RULE FORCE CONSTANT GUESS

          PARAMETERS CONTROLLING GEOMETRY SEARCH ARE
          METHOD =QA                  UPHESS =BFGS    
          NNEG   =         0          NFRZ   =         0
          NSTEP  =       999          IFOLOW =         1
          HESS   =GUESS               RESTAR =         F
          IHREP  =         0          HSSEND =         T
          NPRT   =         0          NPUN   =         0
          OPTTOL = 5.000E-04          RMIN   = 1.500E-03
          RMAX   = 1.000E-01          RLIM   = 7.000E-02
          DXMAX  = 3.000E-01          PURIFY =         F
          MOVIE  =         F          TRUPD  =         T
          TRMAX  = 5.000E-01          TRMIN  = 5.000E-02
          ITBMAT =         5          STPT   =         F
          STSTEP = 1.000E-02          PROJCT=          T

 BEGINNING GEOMETRY SEARCH POINT NSERCH=   0 ...

 COORDINATES OF SYMMETRY UNIQUE ATOMS (ANGS)
   ATOM   CHARGE       X              Y              Z
 ------------------------------------------------------------
 C           6.0  -0.5900000000   0.2600000000   0.0000000000
 N           7.0   0.5700000000  -0.3200000000   0.0000000000
 H           1.0  -1.5100000000  -0.3400000000   0.0000000000
 H           1.0  -0.6900000000   1.3600000000   0.0000000000
 H           1.0   1.3200000000   0.3800000000   0.0000000000
 COORDINATES OF ALL ATOMS ARE (ANGS)
   ATOM   CHARGE       X              Y              Z
 ------------------------------------------------------------
 C           6.0  -0.5900000000   0.2600000000   0.0000000000
 N           7.0   0.5700000000  -0.3200000000   0.0000000000
 H           1.0  -1.5100000000  -0.3400000000   0.0000000000
 H           1.0  -0.6900000000   1.3600000000   0.0000000000
 H           1.0   1.3200000000   0.3800000000   0.0000000000

          ********************
          1 ELECTRON INTEGRALS
          ********************
 ...... END OF ONE-ELECTRON INTEGRALS ......
 STEP CPU TIME =     0.00 TOTAL CPU TIME =          0.0 (      0.0 MIN)
 TOTAL WALL CLOCK TIME=          0.0 SECONDS, CPU UTILIZATION IS    33.33%

          -------------
          GUESS OPTIONS
          -------------
          GUESS =HUCKEL            NORB  =       0          NORDER=       0
          MIX   =       F          PRTMO =       F          PUNMO =       F
          TOLZ  = 1.0E-08          TOLE  = 1.0E-05
          SYMDEN=       F          PURIFY=       F

 INITIAL GUESS ORBITALS GENERATED BY HUCKEL   ROUTINE.
 HUCKEL GUESS REQUIRES     13872 WORDS.

 SYMMETRIES FOR INITIAL GUESS ORBITALS FOLLOW.   BOTH SET(S).
     8 ORBITALS ARE OCCUPIED (    2 CORE ORBITALS).
     3=A'       4=A'       5=A'       6=A'       7=A''      8=A'       9=A'' 
    10=A'      11=A'      12=A'      13=A'      14=A'      15=A'      16=A'  
    17=A'      18=A'  
 ...... END OF INITIAL ORBITAL SELECTION ......
 STEP CPU TIME =     0.01 TOTAL CPU TIME =          0.0 (      0.0 MIN)
 TOTAL WALL CLOCK TIME=          0.0 SECONDS, CPU UTILIZATION IS    50.00%

                    ----------------------
                    AO INTEGRAL TECHNOLOGY
                    ----------------------
     S,P,L SHELL ROTATED AXIS INTEGRALS, REPROGRAMMED BY
        KAZUYA ISHIMURA (IMS) AND JOSE SIERRA (SYNSTAR).
     S,P,D,L SHELL ROTATED AXIS INTEGRALS PROGRAMMED BY
        KAZUYA ISHIMURA (INSTITUTE FOR MOLECULAR SCIENCE).
     S,P,D,F,G SHELL TO TOTAL QUARTET ANGULAR MOMENTUM SUM 5,
        ERIC PROGRAM BY GRAHAM FLETCHER (ELORET AND NASA ADVANCED
        SUPERCOMPUTING DIVISION, AMES RESEARCH CENTER).
     S,P,D,F,G,L SHELL GENERAL RYS QUADRATURE PROGRAMMED BY
        MICHEL DUPUIS (PACIFIC NORTHWEST NATIONAL LABORATORY).

          --------------------
          2 ELECTRON INTEGRALS
          --------------------

 DIRECT SCF METHOD SKIPS INTEGRAL STORAGE ON DISK.
 DIRECT TRANSFORMATION SKIPS AO INTEGRAL STORAGE ON DISK.
  ...... END OF TWO-ELECTRON INTEGRALS .....
 STEP CPU TIME =     0.01 TOTAL CPU TIME =          0.0 (      0.0 MIN)
 TOTAL WALL CLOCK TIME=          0.0 SECONDS, CPU UTILIZATION IS    60.00%

          --------------------------
             R-B3LYP SCF CALCULATION
          --------------------------

     NUCLEAR ENERGY =        32.4150906501
     MAXIT =  200     NPUNCH=    2
     EXTRAP=T  DAMP=F  SHIFT=F  RSTRCT=F  DIIS=T  DEM=F  SOSCF=F
         DENSITY MATRIX CONVERGENCE THRESHOLD=  2.00E-05
     COARSE -> FINE DFT GRID SWITCH THRESHOLD=  3.00E-04 (SWITCH IN $DFT)
                   HF -> DFT SWITCH THRESHOLD=  5.00E-03 (SWOFF IN $DFT)
     MEMORY REQUIRED FOR RHF ITERS=    416625 WORDS.

 DIRECT SCF CALCULATION, SCHWRZ=T   FDIFF=T,  DIRTHR=  0.00E+00 NITDIR=10
 SCHWARZ INEQUALITY OVERHEAD:       666 INTEGRALS, T=        0.00

 DFT CODE IS SWITCHING FROM THE FINE GRID NRAD= 96,  NLEB=  590
                      TO THE COARSE GRID NRAD0= 24, NLEB0=  110

     EXCHANGE FUNCTIONAL   =B88&HFX   
     CORRELATION FUNCTIONAL=LYP88&VWN5
     DFT THRESHOLD         =.141E-07
     GRID CHANGE THRESHOLD =.300E-03
 FOR AN EULER-MACLAURIN QUADRATURE USING  96 RADIAL POINTS:
 SMALLEST GAUSSIAN PRIMITIVE EXPONENT=        0.1612777588 OF TYPE -S-
 ON ATOM NUMBER   3 HAS RADIAL NORMALIZATION=  1.000000
  LARGEST GAUSSIAN PRIMITIVE EXPONENT=     4173.5114600000 OF TYPE -S-
 ON ATOM NUMBER   2 HAS RADIAL NORMALIZATION=  1.000000
 DFT IS SWITCHED OFF, PERFORMING PURE SCF UNTIL SWOFF THRESHOLD IS REACHED.

                                                                                   NONZERO     BLOCKS
 ITER EX DEM     TOTAL ENERGY        E CHANGE  DENSITY CHANGE    DIIS ERROR      INTEGRALS    SKIPPED
   1  0  0      -93.7214580225   -93.7214580225   0.228346918   0.579253036         117645          2
          * * *   INITIATING DIIS PROCEDURE   * * *
   2  1  0      -93.9975998267    -0.2761418042   0.113048685   0.101872737         117642          5
   3  2  0      -94.0160821234    -0.0184822967   0.043121340   0.069365665         117636         11
   4  3  0      -94.0235684236    -0.0074863002   0.020317356   0.010406957         117632         15
   5  4  0      -94.0240842125    -0.0005157889   0.006434848   0.002985999         117631         16
   6  5  0      -94.0241190660    -0.0000348535   0.002186178   0.000834770         117588         35
 CONVERGED TO SWOFF, SO DFT CALCULATION IS NOW SWITCHED ON.
          * * *   INITIATING DIIS PROCEDURE   * * *
   7  6  0      -94.5581520202    -0.5340329542   0.081132555   0.094704915         117645          2
   8  7  0      -94.5665802398    -0.0084282197   0.033278251   0.023965743         117638          9
   9  8  0      -94.5667421424    -0.0001619026   0.022348615   0.023936402         117633         14
  10  9  0      -94.5679016392    -0.0011594968   0.007388403   0.011201150         117626         18
  11 10  0      -94.5680309498    -0.0001293106   0.000680507   0.001282844         117593         32
  12 11  0      -94.5680332979    -0.0000023480   0.000043865   0.000061538         117532         49
 DFT CODE IS SWITCHING BACK TO THE FINE GRID
          * * *   INITIATING DIIS PROCEDURE   * * *
  13 12  0      -94.5670921030     0.0009411948   0.002499769   0.001203725         117645          2
  14 13  0      -94.5670944955    -0.0000023925   0.000473470   0.000250104         117583         42
  15 14  0      -94.5670943478     0.0000001477   0.000300212   0.000488405         117399         99
  16 15  0      -94.5670945977    -0.0000002499   0.000039872   0.000063058         117242        129
  17 16  0      -94.5670946017    -0.0000000039   0.000007403   0.000011085         116988        223
  18 17  0      -94.5670946019    -0.0000000002   0.000002454   0.000002643         116274        342

          -----------------
          DENSITY CONVERGED
          -----------------
     TIME TO FORM FOCK OPERATORS=       2.4 SECONDS (       0.1 SEC/ITER)
     FOCK TIME ON FIRST ITERATION=       0.0, LAST ITERATION=       0.4
     TIME TO SOLVE SCF EQUATIONS=       0.0 SECONDS (       0.0 SEC/ITER)

 FINAL R-B3LYP ENERGY IS      -94.5670946019 AFTER  18 ITERATIONS
 DFT EXCHANGE + CORRELATION ENERGY =       -10.7615954215
 TOTAL ELECTRON NUMBER             =        15.9999995164

          ------------
          EIGENVECTORS
          ------------

                      1          2          3          4          5
                  -14.3310   -10.2359    -0.8901    -0.6183    -0.4919
                     A'         A'         A'         A'         A'  
    1  C  1  S    0.000054   0.992708  -0.127036  -0.154292  -0.013171
    2  C  1  S    0.000427   0.048568   0.249639   0.317553   0.018914
    3  C  1  X    0.000006   0.000193   0.140801  -0.161616  -0.119444
    4  C  1  Y   -0.000060  -0.000098  -0.057206   0.028363   0.379674
    5  C  1  Z    0.000000   0.000000   0.000000   0.000000   0.000000
    6  C  1  S   -0.000642  -0.009812   0.128348   0.314504   0.030876
    7  C  1  X   -0.000312   0.000516  -0.001968  -0.054678  -0.028598
    8  C  1  Y    0.000634  -0.000119   0.008443   0.022101   0.137111
    9  C  1  Z    0.000000   0.000000   0.000000   0.000000   0.000000
   10  C  1 XX   -0.000429  -0.009138   0.013744  -0.008938  -0.005420
   11  C  1 YY   -0.000058  -0.009446  -0.004454   0.011733   0.013426
   12  C  1 ZZ   -0.000003  -0.009832  -0.016665  -0.013503   0.000269
   13  C  1 XY    0.000186  -0.000210  -0.010221   0.009474   0.010194
   14  C  1 XZ    0.000000   0.000000   0.000000   0.000000   0.000000
   15  C  1 YZ    0.000000   0.000000   0.000000   0.000000   0.000000
   16  N  2  S    0.992771  -0.000266  -0.179502   0.086136   0.030221
   17  N  2  S    0.034475  -0.000196   0.376472  -0.187261  -0.071430
   18  N  2  X   -0.000388   0.000263  -0.078842  -0.194472   0.315990
   19  N  2  Y    0.001495  -0.000103   0.126599  -0.062026   0.141265
   20  N  2  Z    0.000000   0.000000   0.000000   0.000000   0.000000
   21  N  2  S    0.003822   0.001349   0.350913  -0.233962  -0.063143
   22  N  2  X   -0.000363  -0.000184  -0.016243  -0.077132   0.107205
   23  N  2  Y   -0.000493  -0.000133   0.051499  -0.032978   0.073044
   24  N  2  Z    0.000000   0.000000   0.000000   0.000000   0.000000
   25  N  2 XX   -0.007834  -0.000372   0.004844   0.006424  -0.007039
   26  N  2 YY   -0.008056  -0.000224   0.000813  -0.003698   0.019903
   27  N  2 ZZ   -0.008167  -0.000020  -0.014135   0.005376  -0.002596
   28  N  2 XY   -0.000135   0.000080   0.000224  -0.020667   0.014905
   29  N  2 XZ    0.000000   0.000000   0.000000   0.000000   0.000000
   30  N  2 YZ    0.000000   0.000000   0.000000   0.000000   0.000000
   31  H  3  S    0.000055  -0.000370   0.044019   0.174184  -0.036704
   32  H  3  S    0.000056   0.002242   0.003587   0.070125  -0.014469
   33  H  4  S   -0.000070  -0.000377   0.047672   0.144801   0.222218
   34  H  4  S   -0.000246   0.002114   0.000505   0.053603   0.157371
   35  H  5  S    0.000262   0.000088   0.116468  -0.160773   0.168995
   36  H  5  S   -0.000171   0.000213   0.000392  -0.056471   0.121133

                      6          7          8          9         10
                   -0.4262    -0.3199    -0.2642    -0.0126     0.0939
                     A'         A''        A'         A''        A'  
    1  C  1  S   -0.014509   0.000000  -0.022843   0.000000   0.059358
    2  C  1  S    0.037619   0.000000   0.061470   0.000000  -0.103726
    3  C  1  X    0.386861   0.000000   0.048331   0.000000   0.080439
    4  C  1  Y    0.177214   0.000000  -0.175150   0.000000  -0.215501
    5  C  1  Z    0.000000   0.384031   0.000000   0.457571   0.000000
    6  C  1  S    0.026663   0.000000   0.011779   0.000000  -0.734095
    7  C  1  X    0.154948   0.000000   0.025207   0.000000   0.409420
    8  C  1  Y    0.082333   0.000000   0.002515   0.000000  -0.512820
    9  C  1  Z    0.000000   0.257461   0.000000   0.591260   0.000000
   10  C  1 XX   -0.013530   0.000000   0.018787   0.000000  -0.011478
   11  C  1 YY    0.003597   0.000000  -0.027437   0.000000   0.017713
   12  C  1 ZZ   -0.003238   0.000000  -0.002276   0.000000   0.003141
   13  C  1 XY   -0.020342   0.000000   0.023324   0.000000   0.002913
   14  C  1 XZ    0.000000   0.020079   0.000000  -0.026033   0.000000
   15  C  1 YZ    0.000000  -0.008631   0.000000   0.013624   0.000000
   16  N  2  S    0.029035   0.000000   0.083113   0.000000   0.072176
   17  N  2  S   -0.055874   0.000000  -0.168551   0.000000  -0.093039
   18  N  2  X   -0.303420   0.000000  -0.046371   0.000000  -0.197415
   19  N  2  Y    0.122067   0.000000   0.507394   0.000000  -0.146748
   20  N  2  Z    0.000000   0.451513   0.000000  -0.446729   0.000000
   21  N  2  S   -0.144534   0.000000  -0.393848   0.000000  -1.157109
   22  N  2  X   -0.132555   0.000000  -0.066438   0.000000  -0.301304
   23  N  2  Y    0.051760   0.000000   0.346825   0.000000  -0.373605
   24  N  2  Z    0.000000   0.302303   0.000000  -0.534668   0.000000
   25  N  2 XX   -0.006804   0.000000   0.006171   0.000000   0.023929
   26  N  2 YY    0.011705   0.000000   0.036236   0.000000   0.011169
   27  N  2 ZZ    0.000073   0.000000  -0.006212   0.000000   0.022881
   28  N  2 XY   -0.028974   0.000000  -0.002146   0.000000   0.002190
   29  N  2 XZ    0.000000  -0.015594   0.000000  -0.016065   0.000000
   30  N  2 YZ    0.000000   0.027330   0.000000  -0.013095   0.000000
   31  H  3  S   -0.245721   0.000000   0.118716   0.000000   0.006650
   32  H  3  S   -0.194006   0.000000   0.171067   0.000000   0.295877
   33  H  4  S    0.102644   0.000000  -0.159625   0.000000   0.060660
   34  H  4  S    0.078638   0.000000  -0.243794   0.000000   1.095308
   35  H  5  S   -0.130699   0.000000   0.148916   0.000000   0.102750
   36  H  5  S   -0.105209   0.000000   0.158831   0.000000   1.278107

                     11         12         13         14         15
                    0.1311     0.1938     0.3003     0.5441     0.5860
                     A'         A'         A'         A''        A'  
    1  C  1  S   -0.121787   0.024677   0.061682   0.000000  -0.043063
    2  C  1  S    0.191379   0.004399   0.004308   0.000000   0.220912
    3  C  1  X   -0.204994  -0.202300  -0.045622   0.000000   0.820524
    4  C  1  Y   -0.038464  -0.385600   0.121431   0.000000  -0.388523
    5  C  1  Z    0.000000   0.000000   0.000000  -1.029926   0.000000
    6  C  1  S    1.861423  -0.673074  -1.982189   0.000000   0.811577
    7  C  1  X   -0.412630  -1.091620  -1.983086   0.000000  -0.796067
    8  C  1  Y   -0.151480  -1.012207   1.398648   0.000000   0.244102
    9  C  1  Z    0.000000   0.000000   0.000000   1.136765   0.000000
   10  C  1 XX   -0.017410   0.006814   0.009787   0.000000  -0.012354
   11  C  1 YY   -0.001936  -0.003240  -0.007374   0.000000  -0.054985
   12  C  1 ZZ   -0.001336   0.000015  -0.004896   0.000000   0.052155
   13  C  1 XY   -0.001916  -0.008005  -0.035390   0.000000   0.014053
   14  C  1 XZ    0.000000   0.000000   0.000000  -0.029716   0.000000
   15  C  1 YZ    0.000000   0.000000   0.000000   0.015019   0.000000
   16  N  2  S    0.059331  -0.046667  -0.073164   0.000000   0.052200
   17  N  2  S   -0.088426   0.058480   0.071785   0.000000  -0.162317
   18  N  2  X   -0.042512   0.028770  -0.360539   0.000000   0.048352
   19  N  2  Y   -0.130634   0.172615  -0.039644   0.000000   0.036883
   20  N  2  Z    0.000000   0.000000   0.000000  -0.161698   0.000000
   21  N  2  S   -0.833399   1.012286   2.088223   0.000000  -0.001869
   22  N  2  X   -0.013974   0.010293  -1.527146   0.000000   0.848336
   23  N  2  Y   -0.277324   0.666836   0.309128   0.000000  -0.259348
   24  N  2  Z    0.000000   0.000000   0.000000  -0.038235   0.000000
   25  N  2 XX    0.023723   0.008531   0.003652   0.000000   0.076066
   26  N  2 YY   -0.001820  -0.010852  -0.020965   0.000000  -0.047339
   27  N  2 ZZ    0.020464  -0.023742  -0.031667   0.000000  -0.035070
   28  N  2 XY   -0.000264   0.014427  -0.023052   0.000000  -0.096167
   29  N  2 XZ    0.000000   0.000000   0.000000   0.060293   0.000000
   30  N  2 YZ    0.000000   0.000000   0.000000  -0.027744   0.000000
   31  H  3  S   -0.104713  -0.017249  -0.064485   0.000000  -0.132566
   32  H  3  S   -1.561030  -1.460670   0.050142   0.000000  -0.307438
   33  H  4  S   -0.056193   0.038082  -0.035578   0.000000  -0.253159
   34  H  4  S   -0.793290   1.555519  -0.737511   0.000000  -0.032731
   35  H  5  S    0.070058   0.035287   0.041301   0.000000  -0.248441
   36  H  5  S    0.840173  -0.645891   0.900030   0.000000   0.065755

                     16         17         18         19         20
                    0.6405     0.6627     0.7270     0.7622     0.8258
                     A'         A'         A'         A''        A'  
    1  C  1  S   -0.006590  -0.062505   0.051647   0.000000   0.004154
    2  C  1  S   -0.191431  -0.858018  -0.287746   0.000000  -0.125718
    3  C  1  X   -0.360361  -0.077827  -0.285838   0.000000  -0.374647
    4  C  1  Y   -0.467372   0.125258   0.217839   0.000000  -0.894590
    5  C  1  Z    0.000000   0.000000   0.000000   0.210927   0.000000
    6  C  1  S    0.049678   1.375984   0.772575   0.000000   0.598366
    7  C  1  X    0.703572  -0.432207   0.394751   0.000000   1.095305
    8  C  1  Y    1.523335  -0.061175  -0.284808   0.000000   2.017641
    9  C  1  Z    0.000000   0.000000   0.000000  -0.604840   0.000000
   10  C  1 XX    0.034401  -0.133614   0.186669   0.000000  -0.058734
   11  C  1 YY   -0.104324  -0.174823  -0.087719   0.000000   0.071353
   12  C  1 ZZ    0.013117   0.070759  -0.055041   0.000000  -0.018971
   13  C  1 XY    0.068691  -0.044917  -0.048580   0.000000  -0.094347
   14  C  1 XZ    0.000000   0.000000   0.000000  -0.034761   0.000000
   15  C  1 YZ    0.000000   0.000000   0.000000   0.018020   0.000000
   16  N  2  S   -0.032931  -0.005125  -0.026399   0.000000   0.015996
   17  N  2  S    0.113672  -0.287258  -0.066267   0.000000  -0.143290
   18  N  2  X    0.067632   0.198789  -0.371191   0.000000  -0.123987
   19  N  2  Y   -0.320581   0.051651   0.744838   0.000000   0.273435
   20  N  2  Z    0.000000   0.000000   0.000000  -0.975723   0.000000
   21  N  2  S    0.129068   0.444473  -0.193002   0.000000  -0.009557
   22  N  2  X   -0.253919  -0.394356   0.627738   0.000000   0.116623
   23  N  2  Y    0.143182   0.109148  -0.720472   0.000000  -0.781249
   24  N  2  Z    0.000000   0.000000   0.000000   1.268948   0.000000
   25  N  2 XX   -0.026443  -0.088385  -0.211037   0.000000   0.024624
   26  N  2 YY    0.018065  -0.045688  -0.033149   0.000000  -0.067434
   27  N  2 ZZ    0.059346  -0.011564   0.024501   0.000000  -0.049783
   28  N  2 XY   -0.049609   0.024057  -0.011893   0.000000   0.081182
   29  N  2 XZ    0.000000   0.000000   0.000000   0.024676   0.000000
   30  N  2 YZ    0.000000   0.000000   0.000000  -0.010120   0.000000
   31  H  3  S    0.339361  -0.659929   0.198850   0.000000  -0.451161
   32  H  3  S    0.500148  -0.158912  -0.331687   0.000000   1.573064
   33  H  4  S   -0.490778  -0.542529  -0.146248   0.000000   0.475090
   34  H  4  S   -0.482870   0.042505   0.239467   0.000000  -1.757557
   35  H  5  S   -0.393964   0.073297  -0.464968   0.000000   0.277678
   36  H  5  S    0.080716  -0.117729   0.239467   0.000000  -0.343350

                     21         22         23         24         25
                    0.9062     0.9267     1.0040     1.2468     1.4698
                     A'         A'         A'         A'         A'' 
    1  C  1  S    0.021614   0.005018  -0.011397   0.009967   0.000000
    2  C  1  S   -1.365203  -0.597389   0.167290   0.526278   0.000000
    3  C  1  X    0.354739   0.271673   0.215884  -0.074680   0.000000
    4  C  1  Y   -0.036804  -0.211977  -0.086615  -0.009497   0.000000
    5  C  1  Z    0.000000   0.000000   0.000000   0.000000   0.185926
    6  C  1  S    3.202122   0.652205  -1.058085  -3.757556   0.000000
    7  C  1  X   -0.372794  -0.895962  -0.322634  -1.703410   0.000000
    8  C  1  Y   -0.331982   0.613880   1.570924   0.213451   0.000000
    9  C  1  Z    0.000000   0.000000   0.000000   0.000000  -0.079058
   10  C  1 XX   -0.058552  -0.096499   0.064423  -0.068543   0.000000
   11  C  1 YY   -0.008540   0.034727  -0.031645   0.106403   0.000000
   12  C  1 ZZ   -0.105128  -0.058763  -0.032803   0.022057   0.000000
   13  C  1 XY    0.013978   0.095512   0.183999   0.091215   0.000000
   14  C  1 XZ    0.000000   0.000000   0.000000   0.000000  -0.539195
   15  C  1 YZ    0.000000   0.000000   0.000000   0.000000   0.347227
   16  N  2  S   -0.000506  -0.013937   0.018432  -0.086545   0.000000
   17  N  2  S   -0.261494   0.324975  -0.517400  -1.584262   0.000000
   18  N  2  X   -0.437208   0.706478   0.287659   0.146524   0.000000
   19  N  2  Y   -0.281530   0.316012   0.224200  -0.199975   0.000000
   20  N  2  Z    0.000000   0.000000   0.000000   0.000000   0.148003
   21  N  2  S    0.098873  -0.380450   1.398585   5.261462   0.000000
   22  N  2  X    0.983177  -1.400912  -1.465458  -1.167264   0.000000
   23  N  2  Y    0.419916  -0.351593  -0.914659   1.517744   0.000000
   24  N  2  Z    0.000000   0.000000   0.000000   0.000000   0.036588
   25  N  2 XX   -0.077644   0.051777  -0.083601  -0.349956   0.000000
   26  N  2 YY   -0.046243   0.033483   0.109428  -0.357706   0.000000
   27  N  2 ZZ   -0.012161   0.099440  -0.229344  -0.038793   0.000000
   28  N  2 XY    0.057336  -0.072341   0.032480  -0.065240   0.000000
   29  N  2 XZ    0.000000   0.000000   0.000000   0.000000   0.566364
   30  N  2 YZ    0.000000   0.000000   0.000000   0.000000  -0.167867
   31  H  3  S    0.498305   0.179576   0.557646  -0.031263   0.000000
   32  H  3  S   -1.415340  -0.661427  -0.032900   0.022845   0.000000
   33  H  4  S    0.342885   0.528888  -0.348947   0.306526   0.000000
   34  H  4  S   -0.811570  -1.122064  -0.412614   0.327304   0.000000
   35  H  5  S    0.240016  -0.513978   0.724787  -0.438075   0.000000
   36  H  5  S   -0.894848   1.493315   0.095659  -0.444006   0.000000

                     26         27         28         29         30
                    1.5314     1.7942     1.8517     1.9294     2.1782
                     A''        A'         A''        A'         A'  
    1  C  1  S    0.000000   0.012718   0.000000   0.038819   0.047672
    2  C  1  S    0.000000   0.110077   0.000000   0.262037   0.219334
    3  C  1  X    0.000000   0.102921   0.000000   0.088371   0.097938
    4  C  1  Y    0.000000   0.149933   0.000000  -0.142827  -0.034799
    5  C  1  Z   -0.020535   0.000000  -0.001833   0.000000   0.000000
    6  C  1  S    0.000000  -0.410007   0.000000  -0.535803  -0.223834
    7  C  1  X    0.000000   0.440793   0.000000   0.206050  -0.430513
    8  C  1  Y    0.000000   0.962313   0.000000  -0.062907   0.117530
    9  C  1  Z    0.014712   0.000000   0.010236   0.000000   0.000000
   10  C  1 XX    0.000000  -0.330867   0.000000  -0.024624  -0.603047
   11  C  1 YY    0.000000   0.111400   0.000000  -0.689036   0.476207
   12  C  1 ZZ    0.000000   0.228849   0.000000   0.798837   0.382037
   13  C  1 XY    0.000000  -0.320527   0.000000  -0.062682   0.632478
   14  C  1 XZ    0.409367   0.000000  -0.269787   0.000000   0.000000
   15  C  1 YZ    0.630013   0.000000  -0.611805   0.000000   0.000000
   16  N  2  S    0.000000   0.006052   0.000000   0.028036   0.004976
   17  N  2  S    0.000000   0.018278   0.000000   0.239553   0.457030
   18  N  2  X    0.000000   0.090059   0.000000  -0.065512  -0.423408
   19  N  2  Y    0.000000   0.200577   0.000000  -0.000103   0.234736
   20  N  2  Z   -0.027999   0.000000  -0.016479   0.000000   0.000000
   21  N  2  S    0.000000  -0.027356   0.000000  -0.701912  -0.186021
   22  N  2  X    0.000000  -0.434217   0.000000  -0.181423   0.412694
   23  N  2  Y    0.000000  -0.538865   0.000000  -0.379536  -0.066090
   24  N  2  Z   -0.019190   0.000000  -0.018145   0.000000   0.000000
   25  N  2 XX    0.000000   0.392992   0.000000  -0.346001  -0.199153
   26  N  2 YY    0.000000  -0.737625   0.000000   0.022118   0.262636
   27  N  2 ZZ    0.000000   0.366261   0.000000   0.459361   0.211090
   28  N  2 XY    0.000000   0.262550   0.000000  -0.270922   0.357746
   29  N  2 XZ    0.202911   0.000000   0.350714   0.000000   0.000000
   30  N  2 YZ    0.557343   0.000000   0.725749   0.000000   0.000000
   31  H  3  S    0.000000   0.659801   0.000000   0.213735  -0.161207
   32  H  3  S    0.000000   0.304461   0.000000   0.158292  -0.000020
   33  H  4  S    0.000000  -0.389017   0.000000   0.562637  -0.224957
   34  H  4  S    0.000000  -0.229007   0.000000  -0.000946   0.084259
   35  H  5  S    0.000000   0.110102   0.000000   0.526610  -0.244322
   36  H  5  S    0.000000   0.165594   0.000000   0.183885   0.104727

                     31         32         33         34         35
                    2.3387     2.4293     2.5692     2.7303     3.6992
                     A'         A''        A'         A'         A'  
    1  C  1  S    0.036371   0.000000   0.020272   0.024706  -0.055048
    2  C  1  S    0.024267   0.000000  -0.044185  -0.625519   0.560396
    3  C  1  X   -0.063693   0.000000  -0.084267  -0.859178   0.207235
    4  C  1  Y    0.088131   0.000000   0.086213   0.415634  -0.117772
    5  C  1  Z    0.000000   0.158356   0.000000   0.000000   0.000000
    6  C  1  S   -1.300904   0.000000  -0.702776  -1.813381  -1.266153
    7  C  1  X   -0.449567   0.000000  -0.302677  -0.914083  -0.653320
    8  C  1  Y   -0.206098   0.000000   0.104077   0.609922   0.238729
    9  C  1  Z    0.000000   0.282802   0.000000   0.000000   0.000000
   10  C  1 XX   -0.407652   0.000000   0.572827  -0.727040  -0.091951
   11  C  1 YY   -0.088503   0.000000  -0.731724   0.195439  -0.198884
   12  C  1 ZZ    0.596709   0.000000   0.228950   0.424526  -0.205105
   13  C  1 XY   -0.490174   0.000000   0.652155   0.610175  -0.138529
   14  C  1 XZ    0.000000   0.820815   0.000000   0.000000   0.000000
   15  C  1 YZ    0.000000  -0.406933   0.000000   0.000000   0.000000
   16  N  2  S   -0.042094   0.000000  -0.027272  -0.071820  -0.473873
   17  N  2  S   -0.488406   0.000000  -0.137017  -0.186721   1.056094
   18  N  2  X    0.047335   0.000000  -0.070264  -0.405810   0.119101
   19  N  2  Y    0.003878   0.000000  -0.031573   0.243548  -0.154166
   20  N  2  Z    0.000000  -0.039694   0.000000   0.000000   0.000000
   21  N  2  S    1.725082   0.000000   0.854151   2.382842   3.678623
   22  N  2  X   -0.073178   0.000000  -0.305007  -1.496121  -0.391329
   23  N  2  Y    0.828967   0.000000   0.151040   0.477015   0.583535
   24  N  2  Z    0.000000  -0.368056   0.000000   0.000000   0.000000
   25  N  2 XX    0.138919   0.000000   0.690379   0.818709  -1.553613
   26  N  2 YY    0.563224   0.000000  -0.424212  -0.278230  -1.490013
   27  N  2 ZZ   -0.781631   0.000000  -0.309104  -0.544087  -1.543056
   28  N  2 XY    0.287432   0.000000   0.568981  -1.026354   0.035619
   29  N  2 XZ    0.000000   0.844433   0.000000   0.000000   0.000000
   30  N  2 YZ    0.000000  -0.435392   0.000000   0.000000   0.000000
   31  H  3  S    0.480971   0.000000  -0.314459   0.044202   0.092820
   32  H  3  S   -0.186979   0.000000   0.155464   0.006945  -0.076546
   33  H  4  S    0.178147   0.000000   0.477026  -0.024086   0.073593
   34  H  4  S    0.263517   0.000000  -0.161196  -0.092757   0.029837
   35  H  5  S   -0.799235   0.000000  -0.446005   0.229866   0.091324
   36  H  5  S   -0.099863   0.000000   0.155127   0.118886  -0.593455

                     36
                    4.0966
                     A'  
    1  C  1  S   -0.460866
    2  C  1  S    2.993933
    3  C  1  X   -0.189865
    4  C  1  Y    0.102040
    5  C  1  Z    0.000000
    6  C  1  S    1.648960
    7  C  1  X   -0.116471
    8  C  1  Y    0.048082
    9  C  1  Z    0.000000
   10  C  1 XX   -2.038908
   11  C  1 YY   -1.856516
   12  C  1 ZZ   -1.742498
   13  C  1 XY    0.154023
   14  C  1 XZ    0.000000
   15  C  1 YZ    0.000000
   16  N  2  S    0.062256
   17  N  2  S   -0.066545
   18  N  2  X   -0.263763
   19  N  2  Y    0.146181
   20  N  2  Z    0.000000
   21  N  2  S   -0.575218
   22  N  2  X   -0.052822
   23  N  2  Y   -0.011916
   24  N  2  Z    0.000000
   25  N  2 XX    0.481714
   26  N  2 YY    0.255596
   27  N  2 ZZ    0.143370
   28  N  2 XY   -0.157528
   29  N  2 XZ    0.000000
   30  N  2 YZ    0.000000
   31  H  3  S    0.163800
   32  H  3  S   -0.460973
   33  H  4  S    0.170466
   34  H  4  S   -0.459425
   35  H  5  S   -0.043237
   36  H  5  S    0.094131
 ...... END OF RHF CALCULATION ......
 STEP CPU TIME =     2.53 TOTAL CPU TIME =          2.6 (      0.0 MIN)
 TOTAL WALL CLOCK TIME=          2.7 SECONDS, CPU UTILIZATION IS    95.52%

     ---------------------------------------------------------------------
     PROPERTIES FOR THE B3LYP    DFT FUNCTIONAL (RHF  TYPE) DENSITY MATRIX
     ---------------------------------------------------------------------

          -----------------
          ENERGY COMPONENTS
          -----------------

         WAVEFUNCTION NORMALIZATION =       1.0000000000

                ONE ELECTRON ENERGY =    -191.0829384642
                TWO ELECTRON ENERGY =      64.1007532122
           NUCLEAR REPULSION ENERGY =      32.4150906501
                                      ------------------
                       TOTAL ENERGY =     -94.5670946019

 ELECTRON-ELECTRON POTENTIAL ENERGY =      64.1007532122
  NUCLEUS-ELECTRON POTENTIAL ENERGY =    -284.7098020466
   NUCLEUS-NUCLEUS POTENTIAL ENERGY =      32.4150906501
                                      ------------------
             TOTAL POTENTIAL ENERGY =    -188.1939581843
               TOTAL KINETIC ENERGY =      93.6268635824
                 VIRIAL RATIO (V/T) =       2.0100423210

          ---------------------------------------
          MULLIKEN AND LOWDIN POPULATION ANALYSES
          ---------------------------------------

     ATOMIC MULLIKEN POPULATION IN EACH MOLECULAR ORBITAL

                      1          2          3          4          5

                  2.000000   2.000000   2.000000   2.000000   2.000000

    1            -0.000239   1.999047   0.586733   0.934262   0.786558
    2             2.000254   0.000137   1.289036   0.469478   0.576904
    3             0.000002   0.000417   0.015627   0.252959   0.008391
    4            -0.000006   0.000388   0.016332   0.170223   0.412860
    5            -0.000010   0.000011   0.092270   0.173077   0.215286

                      6          7          8

                  2.000000   2.000000   2.000000

    1             0.812198   0.888908   0.109461
    2             0.522148   1.111092   1.500529
    3             0.470504   0.000000   0.092037
    4             0.073157   0.000000   0.194167
    5             0.121994   0.000000   0.103807

               ----- POPULATIONS IN EACH AO -----
                             MULLIKEN      LOWDIN
              1  C  1  S      1.99165     1.97810
              2  C  1  S      0.72119     0.37491
              3  C  1  X      0.75357     0.67128
              4  C  1  Y      0.73895     0.64453
              5  C  1  Z      0.50382     0.46269
              6  C  1  S      0.54549     0.34447
              7  C  1  X      0.18656     0.35023
              8  C  1  Y      0.27136     0.42837
              9  C  1  Z      0.37777     0.41933
             10  C  1 XX      0.01269     0.19575
             11  C  1 YY      0.01460     0.17881
             12  C  1 ZZ     -0.02692     0.10524
             13  C  1 XY      0.01887     0.03489
             14  C  1 XZ      0.00607     0.01052
             15  C  1 YZ      0.00125     0.00231
             16  N  2  S      1.99232     1.97785
             17  N  2  S      0.82811     0.55558
             18  N  2  X      0.78709     0.70684
             19  N  2  Y      0.94698     0.89239
             20  N  2  Z      0.62827     0.58261
             21  N  2  S      0.96326     0.45050
             22  N  2  X      0.28530     0.42637
             23  N  2  Y      0.56278     0.65882
             24  N  2  Z      0.47403     0.51014
             25  N  2 XX      0.00454     0.20408
             26  N  2 YY     -0.01352     0.17127
             27  N  2 ZZ     -0.01574     0.16403
             28  N  2 XY      0.01737     0.02990
             29  N  2 XZ      0.00411     0.00740
             30  N  2 YZ      0.00468     0.00500
             31  H  3  S      0.52845     0.48331
             32  H  3  S      0.31148     0.35817
             33  H  4  S      0.53001     0.49139
             34  H  4  S      0.33712     0.37720
             35  H  5  S      0.51614     0.46910
             36  H  5  S      0.19030     0.27660

          ----- MULLIKEN ATOMIC OVERLAP POPULATIONS -----
          (OFF-DIAGONAL ELEMENTS NEED TO BE MULTIPLIED BY 2)

             1           2           3           4           5

    1    4.8702815
    2    0.5787178   6.7116438
    3    0.3663141  -0.0471020   0.5732650
    4    0.3528523  -0.0438723  -0.0613954   0.6401080
    5   -0.0512382   0.2701917   0.0088553  -0.0205713   0.4991975

          TOTAL MULLIKEN AND LOWDIN ATOMIC POPULATIONS
       ATOM         MULL.POP.    CHARGE          LOW.POP.     CHARGE
    1 C             6.116928   -0.116928         6.201448   -0.201448
    2 N             7.469579   -0.469579         7.342780   -0.342780
    3 H             0.839937    0.160063         0.841475    0.158525
    4 H             0.867121    0.132879         0.868589    0.131411
    5 H             0.706435    0.293565         0.745707    0.254293

          -------------------------------
          BOND ORDER AND VALENCE ANALYSIS     BOND ORDER THRESHOLD=0.050
          -------------------------------

                   BOND                       BOND                       BOND
  ATOM PAIR DIST  ORDER      ATOM PAIR DIST  ORDER      ATOM PAIR DIST  ORDER
    1   2  1.297  2.007        1   3  1.098  0.920        1   4  1.105  0.916
    2   5  1.026  0.843

                       TOTAL       BONDED        FREE
      ATOM            VALENCE     VALENCE     VALENCE
    1 C                 3.839       3.839       0.000
    2 N                 2.861       2.861       0.000
    3 H                 0.928       0.928       0.000
    4 H                 0.927       0.927      -0.000
    5 H                 0.855       0.855       0.000

          ---------------------
          ELECTROSTATIC MOMENTS
          ---------------------

 POINT   1           X           Y           Z (BOHR)    CHARGE
                 0.000968    0.003253    0.000000        0.00 (A.U.)
         DX          DY          DZ         /D/  (DEBYE)
    -0.633511    1.899310    0.000000    2.002178
 ...... END OF PROPERTY EVALUATION ......
 STEP CPU TIME =     0.01 TOTAL CPU TIME =          2.6 (      0.0 MIN)
 TOTAL WALL CLOCK TIME=          2.7 SECONDS, CPU UTILIZATION IS    95.19%

 BEGINNING ONE ELECTRON GRADIENT...
 ..... END OF 1-ELECTRON GRADIENT ......
 STEP CPU TIME =     0.00 TOTAL CPU TIME =          2.6 (      0.0 MIN)
 TOTAL WALL CLOCK TIME=          2.7 SECONDS, CPU UTILIZATION IS    94.83%

          ----------------------
          GRADIENT OF THE ENERGY
          ----------------------
 MEMORY FOR GRID POINT CONTRIBUTIONS TO THE DFT GRADIENT=    347004 WORDS.
 STEP CPU TIME =     0.52 TOTAL CPU TIME =          3.1 (      0.1 MIN)
 TOTAL WALL CLOCK TIME=          3.2 SECONDS, CPU UTILIZATION IS    95.37%

 THE MINIMUM MEMORY REQUIRED FOR THIS RUN IS      78032 WORDS.
 USING    1053552 WORDS FOR 2E- DERIVATIVE INTEGRAL CONTRIBUTIONS.
 THE COARSE/FINE SCHWARZ SCREENINGS SKIPPED            5/          42 BLOCKS.
 THE NUMBER OF GRADIENT INTEGRAL BLOCKS COMPUTED WAS      5390
 ...... END OF 2-ELECTRON GRADIENT ......
 STEP CPU TIME =     0.04 TOTAL CPU TIME =          3.1 (      0.1 MIN)
 TOTAL WALL CLOCK TIME=          3.3 SECONDS, CPU UTILIZATION IS    95.72%

          NSERCH=  0     ENERGY=     -94.5670946

                                 -----------------------
                                 GRADIENT (HARTREE/BOHR)
                                 -----------------------
        ATOM     ZNUC       DE/DX         DE/DY         DE/DZ
 --------------------------------------------------------------
    1  C            6.0    -0.0347034     0.0039304     0.0000000
    2  N            7.0     0.0324148    -0.0054958     0.0000000
    3  H            1.0    -0.0050874    -0.0015202     0.0000000
    4  H            1.0     0.0060705     0.0048910     0.0000000
    5  H            1.0     0.0013055    -0.0018054     0.0000000

          MAXIMUM GRADIENT = 0.0347034    RMS GRADIENT = 0.0126349

 NSERCH:   0  E=      -94.5670946019  GRAD. MAX=  0.0347034  R.M.S.=  0.0126349

          FORCE CONSTANT MATRIX NOT UPDATED --- TAKING FIRST STEP
          MIN SEARCH, CORRECT HESSIAN, TRYING PURE NR STEP
               NR STEP HAS LENGTH         =   0.222500
          RADIUS OF STEP TAKEN=   0.22250  CURRENT TRUST RADIUS=   0.30000

 BEGINNING GEOMETRY SEARCH POINT NSERCH=   1 ...

 COORDINATES OF SYMMETRY UNIQUE ATOMS (ANGS)
   ATOM   CHARGE       X              Y              Z
 ------------------------------------------------------------
 C           6.0  -0.5446562694   0.2921178820   0.0000000000
 N           7.0   0.5522761216  -0.3455338746   0.0000000000
 H           1.0  -1.4592506738  -0.3248570456   0.0000000000
 H           1.0  -0.7668536510   1.3698713015   0.0000000000
 H           1.0   1.3184844726   0.3484017367   0.0000000000
 COORDINATES OF ALL ATOMS ARE (ANGS)
   ATOM   CHARGE       X              Y              Z
 ------------------------------------------------------------
 C           6.0  -0.5446562694   0.2921178820   0.0000000000
 N           7.0   0.5522761216  -0.3455338746   0.0000000000
 H           1.0  -1.4592506738  -0.3248570456   0.0000000000
 H           1.0  -0.7668536510   1.3698713015   0.0000000000
 H           1.0   1.3184844726   0.3484017367   0.0000000000

          INTERNUCLEAR DISTANCES (ANGS.)
          ------------------------------

                1 C          2 N          3 H          4 H          5 H     

   1 C       0.0000000    1.2688028 *  1.1032411 *  1.1004200 *  1.8639907 *
   2 N       1.2688028 *  0.0000000    2.0116331 *  2.1639589 *  1.0337417 *
   3 H       1.1032411 *  2.0116331 *  0.0000000    1.8307151 *  2.8581620 *
   4 H       1.1004200 *  2.1639589 *  1.8307151 *  0.0000000    2.3220756 *
   5 H       1.8639907 *  1.0337417 *  2.8581620 *  2.3220756 *  0.0000000  

  * ... LESS THAN  3.000

 ...... END OF ONE-ELECTRON INTEGRALS ......
 STEP CPU TIME =     0.00 TOTAL CPU TIME =          3.1 (      0.1 MIN)
 TOTAL WALL CLOCK TIME=          3.3 SECONDS, CPU UTILIZATION IS    95.43%
  ...... END OF TWO-ELECTRON INTEGRALS .....
 STEP CPU TIME =     0.00 TOTAL CPU TIME =          3.1 (      0.1 MIN)
 TOTAL WALL CLOCK TIME=          3.3 SECONDS, CPU UTILIZATION IS    95.14%

          --------------------------
             R-B3LYP SCF CALCULATION
          --------------------------
         DENSITY MATRIX CONVERGENCE THRESHOLD=  1.00E-04
     COARSE -> FINE DFT GRID SWITCH THRESHOLD=  1.50E-03 (SWITCH IN $DFT)
                   HF -> DFT SWITCH THRESHOLD=  5.00E-03 (SWOFF IN $DFT)

 DIRECT SCF CALCULATION, SCHWRZ=T   FDIFF=T,  DIRTHR=  0.00E+00 NITDIR=10

 DFT CODE IS SWITCHING FROM THE FINE GRID NRAD= 96,  NLEB=  590
                      TO THE COARSE GRID NRAD0= 24, NLEB0=  110

                                                                                   NONZERO     BLOCKS
 ITER EX DEM     TOTAL ENERGY        E CHANGE  DENSITY CHANGE    DIIS ERROR      INTEGRALS    SKIPPED
          * * *   INITIATING DIIS PROCEDURE   * * *
   1  0  0      -94.5659646659   -94.5659646659   0.024147387   0.018238838         117645          1
   2  1  0      -94.5680669717    -0.0021023058   0.007089417   0.003766220         117634         13
   3  2  0      -94.5680740512    -0.0000070795   0.004990924   0.004636410         117628         16
   4  3  0      -94.5681200178    -0.0000459666   0.001673656   0.002967069         117613         23
   5  4  0      -94.5681281952    -0.0000081774   0.000310259   0.000413179         117572         43
 DFT CODE IS SWITCHING BACK TO THE FINE GRID
          * * *   INITIATING DIIS PROCEDURE   * * *
   6  5  0      -94.5668636578     0.0012645375   0.001963855   0.001213444         117645          1
   7  6  0      -94.5668661965    -0.0000025388   0.000785813   0.000500902         117583         42
   8  7  0      -94.5668658061     0.0000003904   0.000447580   0.000817784         117489         72
   9  8  0      -94.5668664919    -0.0000006858   0.000025835   0.000032609         117447         78
  10  9  0      -94.5668664941    -0.0000000021   0.000004305   0.000008501         117084        204
  11 10  0      -94.5668664942    -0.0000000001   0.000000561   0.000000526         116142        384

          -----------------
          DENSITY CONVERGED
          -----------------
     TIME TO FORM FOCK OPERATORS=       2.3 SECONDS (       0.2 SEC/ITER)
     FOCK TIME ON FIRST ITERATION=       0.0, LAST ITERATION=       0.4
     TIME TO SOLVE SCF EQUATIONS=       0.0 SECONDS (       0.0 SEC/ITER)

 FINAL R-B3LYP ENERGY IS      -94.5668664942 AFTER  11 ITERATIONS
 DFT EXCHANGE + CORRELATION ENERGY =       -10.7749427658
 TOTAL ELECTRON NUMBER             =        16.0000001590
 ...... END OF RHF CALCULATION ......
 STEP CPU TIME =     2.42 TOTAL CPU TIME =          5.6 (      0.1 MIN)
 TOTAL WALL CLOCK TIME=          5.8 SECONDS, CPU UTILIZATION IS    96.19%
 ..... END OF 1-ELECTRON GRADIENT ......
 STEP CPU TIME =     0.00 TOTAL CPU TIME =          5.6 (      0.1 MIN)
 TOTAL WALL CLOCK TIME=          5.8 SECONDS, CPU UTILIZATION IS    95.69%
 MEMORY FOR GRID POINT CONTRIBUTIONS TO THE DFT GRADIENT=    347004 WORDS.
 STEP CPU TIME =     0.53 TOTAL CPU TIME =          6.1 (      0.1 MIN)
 TOTAL WALL CLOCK TIME=          6.3 SECONDS, CPU UTILIZATION IS    96.20%
 ...... END OF 2-ELECTRON GRADIENT ......
 STEP CPU TIME =     0.03 TOTAL CPU TIME =          6.1 (      0.1 MIN)
 TOTAL WALL CLOCK TIME=          6.4 SECONDS, CPU UTILIZATION IS    96.07%

          NSERCH=  1     ENERGY=     -94.5668665

                                 -----------------------
                                 GRADIENT (HARTREE/BOHR)
                                 -----------------------
        ATOM     ZNUC       DE/DX         DE/DY         DE/DZ
 --------------------------------------------------------------
    1  C            6.0     0.0244036     0.0160302     0.0000000
    2  N            7.0    -0.0094003    -0.0170307     0.0000000
    3  H            1.0    -0.0020941    -0.0035474     0.0000000
    4  H            1.0    -0.0109166    -0.0011376     0.0000000
    5  H            1.0    -0.0019927     0.0056855     0.0000000

          MAXIMUM GRADIENT = 0.0244036    RMS GRADIENT = 0.0096769

 NSERCH:   1  E=      -94.5668664942  GRAD. MAX=  0.0244036  R.M.S.=  0.0096769

          HESSIAN UPDATED USING THE BFGS FORMULA
             ACTUAL ENERGY CHANGE WAS   0.0002281077
          PREDICTED ENERGY CHANGE WAS  -0.0023866583 RATIO= -0.096
          MIN SEARCH, CORRECT HESSIAN, TRYING PURE NR STEP
               NR STEP HAS LENGTH         =   0.133738
          TRIM/QA LAMBDA FOR NON-TS MODES =  -0.02860822
          TRIM/QA STEP HAS LENGTH         =   0.111250
          RADIUS OF STEP TAKEN=   0.11125  CURRENT TRUST RADIUS=   0.11125

 BEGINNING GEOMETRY SEARCH POINT NSERCH=   2 ...

 COORDINATES OF SYMMETRY UNIQUE ATOMS (ANGS)
   ATOM   CHARGE       X              Y              Z
 ------------------------------------------------------------
 C           6.0  -0.5668297300   0.2725545261   0.0000000000
 N           7.0   0.5510564178  -0.3153669810   0.0000000000
 H           1.0  -1.4791313379  -0.3300014652   0.0000000000
 H           1.0  -0.7350215484   1.3601032143   0.0000000000
 H           1.0   1.3299261985   0.3527107058   0.0000000000
 COORDINATES OF ALL ATOMS ARE (ANGS)
   ATOM   CHARGE       X              Y              Z
 ------------------------------------------------------------
 C           6.0  -0.5668297300   0.2725545261   0.0000000000
 N           7.0   0.5510564178  -0.3153669810   0.0000000000
 H           1.0  -1.4791313379  -0.3300014652   0.0000000000
 H           1.0  -0.7350215484   1.3601032143   0.0000000000
 H           1.0   1.3299261985   0.3527107058   0.0000000000

          INTERNUCLEAR DISTANCES (ANGS.)
          ------------------------------

                1 C          2 N          3 H          4 H          5 H     

   1 C       0.0000000    1.2630602 *  1.0933288 *  1.1004775 *  1.8984489 *
   2 N       1.2630602 *  0.0000000    2.0302405 *  2.1121546 *  1.0261413 *
   3 H       1.0933288 *  2.0302405 *  0.0000000    1.8466600 *  2.8908304 *
   4 H       1.1004775 *  2.1121546 *  1.8466600 *  0.0000000    2.2975746 *
   5 H       1.8984489 *  1.0261413 *  2.8908304 *  2.2975746 *  0.0000000  

  * ... LESS THAN  3.000

 ...... END OF ONE-ELECTRON INTEGRALS ......
 STEP CPU TIME =     0.00 TOTAL CPU TIME =          6.1 (      0.1 MIN)
 TOTAL WALL CLOCK TIME=          6.4 SECONDS, CPU UTILIZATION IS    96.07%
  ...... END OF TWO-ELECTRON INTEGRALS .....
 STEP CPU TIME =     0.00 TOTAL CPU TIME =          6.1 (      0.1 MIN)
 TOTAL WALL CLOCK TIME=          6.4 SECONDS, CPU UTILIZATION IS    95.77%

          --------------------------
             R-B3LYP SCF CALCULATION
          --------------------------
         DENSITY MATRIX CONVERGENCE THRESHOLD=  1.00E-04
     COARSE -> FINE DFT GRID SWITCH THRESHOLD=  1.50E-03 (SWITCH IN $DFT)
                   HF -> DFT SWITCH THRESHOLD=  5.00E-03 (SWOFF IN $DFT)

 DIRECT SCF CALCULATION, SCHWRZ=T   FDIFF=T,  DIRTHR=  0.00E+00 NITDIR=10

 DFT CODE IS SWITCHING FROM THE FINE GRID NRAD= 96,  NLEB=  590
                      TO THE COARSE GRID NRAD0= 24, NLEB0=  110

                                                                                   NONZERO     BLOCKS
 ITER EX DEM     TOTAL ENERGY        E CHANGE  DENSITY CHANGE    DIIS ERROR      INTEGRALS    SKIPPED
          * * *   INITIATING DIIS PROCEDURE   * * *
   1  0  0      -94.5687322896   -94.5687322896   0.016156668   0.013043745         117645          1
   2  1  0      -94.5694711817    -0.0007388921   0.005632183   0.002599285         117635         12
   3  2  0      -94.5694569402     0.0000142415   0.003928115   0.004967666         117623         18
   4  3  0      -94.5694914305    -0.0000344902   0.000938524   0.001432326         117595         30
 DFT CODE IS SWITCHING BACK TO THE FINE GRID
          * * *   INITIATING DIIS PROCEDURE   * * *
   5  4  0      -94.5683644083     0.0011270222   0.001887960   0.001094587         117645          1
   6  5  0      -94.5683669139    -0.0000025056   0.000238705   0.000299370         117587         41
   7  6  0      -94.5683669687    -0.0000000549   0.000164021   0.000151417         117480         74
   8  7  0      -94.5683670271    -0.0000000584   0.000080811   0.000101738         117365        104
   9  8  0      -94.5683670357    -0.0000000086   0.000020510   0.000039928         117149        170

          -----------------
          DENSITY CONVERGED
          -----------------
     TIME TO FORM FOCK OPERATORS=       2.0 SECONDS (       0.2 SEC/ITER)
     FOCK TIME ON FIRST ITERATION=       0.0, LAST ITERATION=       0.4
     TIME TO SOLVE SCF EQUATIONS=       0.0 SECONDS (       0.0 SEC/ITER)

 FINAL R-B3LYP ENERGY IS      -94.5683670357 AFTER   9 ITERATIONS
 DFT EXCHANGE + CORRELATION ENERGY =       -10.7832279869
 TOTAL ELECTRON NUMBER             =        15.9999979894
 ...... END OF RHF CALCULATION ......
 STEP CPU TIME =     2.02 TOTAL CPU TIME =          8.1 (      0.1 MIN)
 TOTAL WALL CLOCK TIME=          8.4 SECONDS, CPU UTILIZATION IS    96.44%
 ..... END OF 1-ELECTRON GRADIENT ......
 STEP CPU TIME =     0.00 TOTAL CPU TIME =          8.1 (      0.1 MIN)
 TOTAL WALL CLOCK TIME=          8.4 SECONDS, CPU UTILIZATION IS    96.33%
 MEMORY FOR GRID POINT CONTRIBUTIONS TO THE DFT GRADIENT=    347004 WORDS.
 STEP CPU TIME =     0.52 TOTAL CPU TIME =          8.7 (      0.1 MIN)
 TOTAL WALL CLOCK TIME=          9.0 SECONDS, CPU UTILIZATION IS    96.43%
 ...... END OF 2-ELECTRON GRADIENT ......
 STEP CPU TIME =     0.03 TOTAL CPU TIME =          8.7 (      0.1 MIN)
 TOTAL WALL CLOCK TIME=          9.0 SECONDS, CPU UTILIZATION IS    96.44%

          NSERCH=  2     ENERGY=     -94.5683670

                                 -----------------------
                                 GRADIENT (HARTREE/BOHR)
                                 -----------------------
        ATOM     ZNUC       DE/DX         DE/DY         DE/DZ
 --------------------------------------------------------------
    1  C            6.0     0.0089759    -0.0056964     0.0000000
    2  N            7.0    -0.0082716     0.0062747     0.0000000
    3  H            1.0     0.0002631     0.0012138     0.0000000
    4  H            1.0    -0.0018038    -0.0001462     0.0000000
    5  H            1.0     0.0008364    -0.0016459     0.0000000

          MAXIMUM GRADIENT = 0.0089759    RMS GRADIENT = 0.0039075

 NSERCH:   2  E=      -94.5683670357  GRAD. MAX=  0.0089759  R.M.S.=  0.0039075

          HESSIAN UPDATED USING THE BFGS FORMULA
             ACTUAL ENERGY CHANGE WAS  -0.0015005415
          PREDICTED ENERGY CHANGE WAS  -0.0017188841 RATIO=  0.873
          MIN SEARCH, CORRECT HESSIAN, TRYING PURE NR STEP
               NR STEP HAS LENGTH         =   0.073699
          RADIUS OF STEP TAKEN=   0.07370  CURRENT TRUST RADIUS=   0.15733

 BEGINNING GEOMETRY SEARCH POINT NSERCH=   3 ...

 COORDINATES OF SYMMETRY UNIQUE ATOMS (ANGS)
   ATOM   CHARGE       X              Y              Z
 ------------------------------------------------------------
 C           6.0  -0.5769405560   0.2749019808   0.0000000000
 N           7.0   0.5512896636  -0.3235672240   0.0000000000
 H           1.0  -1.4789336615  -0.3430469090   0.0000000000
 H           1.0  -0.7087256124   1.3657061567   0.0000000000
 H           1.0   1.3133101663   0.3660059954   0.0000000000
 COORDINATES OF ALL ATOMS ARE (ANGS)
   ATOM   CHARGE       X              Y              Z
 ------------------------------------------------------------
 C           6.0  -0.5769405560   0.2749019808   0.0000000000
 N           7.0   0.5512896636  -0.3235672240   0.0000000000
 H           1.0  -1.4789336615  -0.3430469090   0.0000000000
 H           1.0  -0.7087256124   1.3657061567   0.0000000000
 H           1.0   1.3133101663   0.3660059954   0.0000000000

          INTERNUCLEAR DISTANCES (ANGS.)
          ------------------------------

                1 C          2 N          3 H          4 H          5 H     

   1 C       0.0000000    1.2771330 *  1.0933675 *  1.0987361 *  1.8924449 *
   2 N       1.2771330 *  0.0000000    2.0303168 *  2.1074352 *  1.0277093 *
   3 H       1.0933675 *  2.0303168 *  0.0000000    1.8743152 *  2.8808647 *
   4 H       1.0987361 *  2.1074352 *  1.8743152 *  0.0000000    2.2556660 *
   5 H       1.8924449 *  1.0277093 *  2.8808647 *  2.2556660 *  0.0000000  

  * ... LESS THAN  3.000

 ...... END OF ONE-ELECTRON INTEGRALS ......
 STEP CPU TIME =     0.00 TOTAL CPU TIME =          8.7 (      0.1 MIN)
 TOTAL WALL CLOCK TIME=          9.0 SECONDS, CPU UTILIZATION IS    96.34%
  ...... END OF TWO-ELECTRON INTEGRALS .....
 STEP CPU TIME =     0.01 TOTAL CPU TIME =          8.7 (      0.1 MIN)
 TOTAL WALL CLOCK TIME=          9.0 SECONDS, CPU UTILIZATION IS    96.34%

          --------------------------
             R-B3LYP SCF CALCULATION
          --------------------------
         DENSITY MATRIX CONVERGENCE THRESHOLD=  2.00E-05
     COARSE -> FINE DFT GRID SWITCH THRESHOLD=  3.00E-04 (SWITCH IN $DFT)
                   HF -> DFT SWITCH THRESHOLD=  5.00E-03 (SWOFF IN $DFT)

 DIRECT SCF CALCULATION, SCHWRZ=T   FDIFF=T,  DIRTHR=  0.00E+00 NITDIR=10

 DFT CODE IS SWITCHING FROM THE FINE GRID NRAD= 96,  NLEB=  590
                      TO THE COARSE GRID NRAD0= 24, NLEB0=  110

                                                                                   NONZERO     BLOCKS
 ITER EX DEM     TOTAL ENERGY        E CHANGE  DENSITY CHANGE    DIIS ERROR      INTEGRALS    SKIPPED
          * * *   INITIATING DIIS PROCEDURE   * * *
   1  0  0      -94.5692588488   -94.5692588488   0.017264870   0.007200315         117645          2
   2  1  0      -94.5694706000    -0.0002117513   0.006100471   0.003688731         117633         14
   3  2  0      -94.5694577378     0.0000128622   0.004203420   0.006129097         117605         25
   4  3  0      -94.5694967679    -0.0000390301   0.000714246   0.001218576         117594         34
   5  4  0      -94.5694985581    -0.0000017902   0.000092905   0.000085596         117515         58
 DFT CODE IS SWITCHING BACK TO THE FINE GRID
          * * *   INITIATING DIIS PROCEDURE   * * *
   6  5  0      -94.5683651275     0.0011334306   0.002313866   0.001147632         117645          2
   7  6  0      -94.5683675961    -0.0000024687   0.000698299   0.000412293         117581         42
   8  7  0      -94.5683672768     0.0000003194   0.000406940   0.000718366         117490         68
   9  8  0      -94.5683678124    -0.0000005356   0.000027365   0.000037214         117442         81
  10  9  0      -94.5683678145    -0.0000000022   0.000008304   0.000011595         117067        204
  11 10  0      -94.5683678148    -0.0000000003   0.000002661   0.000002813         116437        317

          -----------------
          DENSITY CONVERGED
          -----------------
     TIME TO FORM FOCK OPERATORS=       2.4 SECONDS (       0.2 SEC/ITER)
     FOCK TIME ON FIRST ITERATION=       0.0, LAST ITERATION=       0.4
     TIME TO SOLVE SCF EQUATIONS=       0.0 SECONDS (       0.0 SEC/ITER)

 FINAL R-B3LYP ENERGY IS      -94.5683678148 AFTER  11 ITERATIONS
 DFT EXCHANGE + CORRELATION ENERGY =       -10.7757543368
 TOTAL ELECTRON NUMBER             =        15.9999985228
 ...... END OF RHF CALCULATION ......
 STEP CPU TIME =     2.42 TOTAL CPU TIME =         11.1 (      0.2 MIN)
 TOTAL WALL CLOCK TIME=         11.5 SECONDS, CPU UTILIZATION IS    96.61%
 ..... END OF 1-ELECTRON GRADIENT ......
 STEP CPU TIME =     0.01 TOTAL CPU TIME =         11.1 (      0.2 MIN)
 TOTAL WALL CLOCK TIME=         11.5 SECONDS, CPU UTILIZATION IS    96.44%
 MEMORY FOR GRID POINT CONTRIBUTIONS TO THE DFT GRADIENT=    347004 WORDS.
 STEP CPU TIME =     0.53 TOTAL CPU TIME =         11.6 (      0.2 MIN)
 TOTAL WALL CLOCK TIME=         12.1 SECONDS, CPU UTILIZATION IS    96.60%
 ...... END OF 2-ELECTRON GRADIENT ......
 STEP CPU TIME =     0.02 TOTAL CPU TIME =         11.7 (      0.2 MIN)
 TOTAL WALL CLOCK TIME=         12.1 SECONDS, CPU UTILIZATION IS    96.53%

          NSERCH=  3     ENERGY=     -94.5683678

                                 -----------------------
                                 GRADIENT (HARTREE/BOHR)
                                 -----------------------
        ATOM     ZNUC       DE/DX         DE/DY         DE/DZ
 --------------------------------------------------------------
    1  C            6.0    -0.0095765     0.0055084     0.0000000
    2  N            7.0     0.0060678    -0.0042138     0.0000000
    3  H            1.0     0.0013741    -0.0024597     0.0000000
    4  H            1.0     0.0023536     0.0007913     0.0000000
    5  H            1.0    -0.0002190     0.0003738     0.0000000

          MAXIMUM GRADIENT = 0.0095765    RMS GRADIENT = 0.0035676

 NSERCH:   3  E=      -94.5683678148  GRAD. MAX=  0.0095765  R.M.S.=  0.0035676

          HESSIAN UPDATED USING THE BFGS FORMULA
             ACTUAL ENERGY CHANGE WAS  -0.0000007791
          PREDICTED ENERGY CHANGE WAS  -0.0002431340 RATIO=  0.003
          MIN SEARCH, CORRECT HESSIAN, TRYING PURE NR STEP
               NR STEP HAS LENGTH         =   0.049573
          RADIUS OF STEP TAKEN=   0.04957  CURRENT TRUST RADIUS=   0.05000

 BEGINNING GEOMETRY SEARCH POINT NSERCH=   4 ...

 COORDINATES OF SYMMETRY UNIQUE ATOMS (ANGS)
   ATOM   CHARGE       X              Y              Z
 ------------------------------------------------------------
 C           6.0  -0.5690480996   0.2669986036   0.0000000000
 N           7.0   0.5576334748  -0.3245096976   0.0000000000
 H           1.0  -1.4866682432  -0.3272653893   0.0000000000
 H           1.0  -0.7192672030   1.3566753851   0.0000000000
 H           1.0   1.3173500709   0.3681010982   0.0000000000
 COORDINATES OF ALL ATOMS ARE (ANGS)
   ATOM   CHARGE       X              Y              Z
 ------------------------------------------------------------
 C           6.0  -0.5690480996   0.2669986036   0.0000000000
 N           7.0   0.5576334748  -0.3245096976   0.0000000000
 H           1.0  -1.4866682432  -0.3272653893   0.0000000000
 H           1.0  -0.7192672030   1.3566753851   0.0000000000
 H           1.0   1.3173500709   0.3681010982   0.0000000000

          INTERNUCLEAR DISTANCES (ANGS.)
          ------------------------------

                1 C          2 N          3 H          4 H          5 H     

   1 C       0.0000000    1.2725146 *  1.0932412 *  1.0999824 *  1.8891055 *
   2 N       1.2725146 *  0.0000000    2.0443036 *  2.1111273 *  1.0280462 *
   3 H       1.0932412 *  2.0443036 *  0.0000000    1.8505569 *  2.8889537 *
   4 H       1.0999824 *  2.1111273 *  1.8505569 *  0.0000000    2.2638660 *
   5 H       1.8891055 *  1.0280462 *  2.8889537 *  2.2638660 *  0.0000000  

  * ... LESS THAN  3.000

 ...... END OF ONE-ELECTRON INTEGRALS ......
 STEP CPU TIME =     0.01 TOTAL CPU TIME =         11.7 (      0.2 MIN)
 TOTAL WALL CLOCK TIME=         12.1 SECONDS, CPU UTILIZATION IS    96.53%
  ...... END OF TWO-ELECTRON INTEGRALS .....
 STEP CPU TIME =     0.00 TOTAL CPU TIME =         11.7 (      0.2 MIN)
 TOTAL WALL CLOCK TIME=         12.1 SECONDS, CPU UTILIZATION IS    96.13%

          --------------------------
             R-B3LYP SCF CALCULATION
          --------------------------
         DENSITY MATRIX CONVERGENCE THRESHOLD=  2.00E-05
     COARSE -> FINE DFT GRID SWITCH THRESHOLD=  3.00E-04 (SWITCH IN $DFT)
                   HF -> DFT SWITCH THRESHOLD=  5.00E-03 (SWOFF IN $DFT)

 DIRECT SCF CALCULATION, SCHWRZ=T   FDIFF=T,  DIRTHR=  0.00E+00 NITDIR=10

 DFT CODE IS SWITCHING FROM THE FINE GRID NRAD= 96,  NLEB=  590
                      TO THE COARSE GRID NRAD0= 24, NLEB0=  110

                                                                                   NONZERO     BLOCKS
 ITER EX DEM     TOTAL ENERGY        E CHANGE  DENSITY CHANGE    DIIS ERROR      INTEGRALS    SKIPPED
          * * *   INITIATING DIIS PROCEDURE   * * *
   1  0  0      -94.5695813818   -94.5695813818   0.005118265   0.004612366         117645          2
   2  1  0      -94.5696393741    -0.0000579922   0.003542862   0.002302177         117623         21
   3  2  0      -94.5696339264     0.0000054477   0.002219803   0.003600494         117596         32
   4  3  0      -94.5696468723    -0.0000129459   0.000272831   0.000449770         117562         39
 DFT CODE IS SWITCHING BACK TO THE FINE GRID
          * * *   INITIATING DIIS PROCEDURE   * * *
   5  4  0      -94.5684716807     0.0011751916   0.002241828   0.001105553         117645          2
   6  5  0      -94.5684741248    -0.0000024441   0.000751258   0.000432240         117582         41
   7  6  0      -94.5684738094     0.0000003153   0.000432073   0.000728911         117498         63
   8  7  0      -94.5684743843    -0.0000005748   0.000050988   0.000058874         117449         79
   9  8  0      -94.5684743889    -0.0000000046   0.000013926   0.000020341         117133        173
  10  9  0      -94.5684743898    -0.0000000009   0.000002377   0.000003127         116566        282

          -----------------
          DENSITY CONVERGED
          -----------------
     TIME TO FORM FOCK OPERATORS=       2.3 SECONDS (       0.2 SEC/ITER)
     FOCK TIME ON FIRST ITERATION=       0.0, LAST ITERATION=       0.4
     TIME TO SOLVE SCF EQUATIONS=       0.1 SECONDS (       0.0 SEC/ITER)

 FINAL R-B3LYP ENERGY IS      -94.5684743898 AFTER  10 ITERATIONS
 DFT EXCHANGE + CORRELATION ENERGY =       -10.7776599025
 TOTAL ELECTRON NUMBER             =        15.9999979231
 ...... END OF RHF CALCULATION ......
 STEP CPU TIME =     2.41 TOTAL CPU TIME =         14.1 (      0.2 MIN)
 TOTAL WALL CLOCK TIME=         14.6 SECONDS, CPU UTILIZATION IS    96.44%
 ..... END OF 1-ELECTRON GRADIENT ......
 STEP CPU TIME =     0.00 TOTAL CPU TIME =         14.1 (      0.2 MIN)
 TOTAL WALL CLOCK TIME=         14.6 SECONDS, CPU UTILIZATION IS    96.37%
 MEMORY FOR GRID POINT CONTRIBUTIONS TO THE DFT GRADIENT=    347004 WORDS.
 STEP CPU TIME =     0.53 TOTAL CPU TIME =         14.6 (      0.2 MIN)
 TOTAL WALL CLOCK TIME=         15.1 SECONDS, CPU UTILIZATION IS    96.50%
 ...... END OF 2-ELECTRON GRADIENT ......
 STEP CPU TIME =     0.02 TOTAL CPU TIME =         14.6 (      0.2 MIN)
 TOTAL WALL CLOCK TIME=         15.2 SECONDS, CPU UTILIZATION IS    96.44%

          NSERCH=  4     ENERGY=     -94.5684744

                                 -----------------------
                                 GRADIENT (HARTREE/BOHR)
                                 -----------------------
        ATOM     ZNUC       DE/DX         DE/DY         DE/DZ
 --------------------------------------------------------------
    1  C            6.0    -0.0016236    -0.0010715     0.0000000
    2  N            7.0     0.0025352    -0.0014817     0.0000000
    3  H            1.0    -0.0005508     0.0015053     0.0000000
    4  H            1.0    -0.0005089     0.0003133     0.0000000
    5  H            1.0     0.0001482     0.0007347     0.0000000

          MAXIMUM GRADIENT = 0.0025352    RMS GRADIENT = 0.0010294

 NSERCH:   4  E=      -94.5684743898  GRAD. MAX=  0.0025352  R.M.S.=  0.0010294

          HESSIAN UPDATED USING THE BFGS FORMULA
             ACTUAL ENERGY CHANGE WAS  -0.0001065750
          PREDICTED ENERGY CHANGE WAS  -0.0001494371 RATIO=  0.713
          MIN SEARCH, CORRECT HESSIAN, TRYING PURE NR STEP
               NR STEP HAS LENGTH         =   0.034583
          RADIUS OF STEP TAKEN=   0.03458  CURRENT TRUST RADIUS=   0.05000

 BEGINNING GEOMETRY SEARCH POINT NSERCH=   5 ...

 COORDINATES OF SYMMETRY UNIQUE ATOMS (ANGS)
   ATOM   CHARGE       X              Y              Z
 ------------------------------------------------------------
 C           6.0  -0.5696700644   0.2732807307   0.0000000000
 N           7.0   0.5511823949  -0.3195666824   0.0000000000
 H           1.0  -1.4795680463  -0.3346971519   0.0000000000
 H           1.0  -0.7231649078   1.3613362287   0.0000000000
 H           1.0   1.3212206237   0.3596468749   0.0000000000
 COORDINATES OF ALL ATOMS ARE (ANGS)
   ATOM   CHARGE       X              Y              Z
 ------------------------------------------------------------
 C           6.0  -0.5696700644   0.2732807307   0.0000000000
 N           7.0   0.5511823949  -0.3195666824   0.0000000000
 H           1.0  -1.4795680463  -0.3346971519   0.0000000000
 H           1.0  -0.7231649078   1.3613362287   0.0000000000
 H           1.0   1.3212206237   0.3596468749   0.0000000000

          INTERNUCLEAR DISTANCES (ANGS.)
          ------------------------------

                1 C          2 N          3 H          4 H          5 H     

[...]
 ITER EX DEM     TOTAL ENERGY        E CHANGE  DENSITY CHANGE    DIIS ERROR      INTEGRALS    SKIPPED
          * * *   INITIATING DIIS PROCEDURE   * * *
   1  0  0      -94.5696522595   -94.5696522595   0.002195049   0.001088309         136155          2
   2  1  0      -94.5696572367    -0.0000049771   0.000735325   0.000426302         136100         38
   3  2  0      -94.5696569165     0.0000003202   0.000445318   0.000766917         135996         65
   4  3  0      -94.5696575254    -0.0000006089   0.000037778   0.000059002         135946         78
 DFT CODE IS SWITCHING BACK TO THE FINE GRID
          * * *   INITIATING DIIS PROCEDURE   * * *
   5  4  0      -94.5684974665     0.0011600589   0.002196347   0.001087560         136155          2
   6  5  0      -94.5684999264    -0.0000024600   0.000689321   0.000406679         136093         40
   7  6  0      -94.5684996315     0.0000002949   0.000397496   0.000697329         135986         70
   8  7  0      -94.5685001399    -0.0000005084   0.000029426   0.000040010         135938         81
   9  8  0      -94.5685001422    -0.0000000023   0.000008758   0.000012023         135524        201
  10  9  0      -94.5685001426    -0.0000000003   0.000002657   0.000002896         134732        316

          -----------------
          DENSITY CONVERGED
          -----------------
     TIME TO FORM FOCK OPERATORS=       2.3 SECONDS (       0.2 SEC/ITER)
     FOCK TIME ON FIRST ITERATION=       0.0, LAST ITERATION=       0.4
     TIME TO SOLVE SCF EQUATIONS=       0.0 SECONDS (       0.0 SEC/ITER)

 FINAL R-B3LYP ENERGY IS      -94.5685001426 AFTER  10 ITERATIONS
 DFT EXCHANGE + CORRELATION ENERGY =       -10.7790085133
 TOTAL ELECTRON NUMBER             =        15.9999980384
 ...... END OF RHF CALCULATION ......
 STEP CPU TIME =     2.33 TOTAL CPU TIME =        106.9 (      1.8 MIN)
 TOTAL WALL CLOCK TIME=        110.0 SECONDS, CPU UTILIZATION IS    97.18%
 ..... END OF 1-ELECTRON GRADIENT ......
 STEP CPU TIME =     0.00 TOTAL CPU TIME =        106.9 (      1.8 MIN)
 TOTAL WALL CLOCK TIME=        110.0 SECONDS, CPU UTILIZATION IS    97.18%
 MEMORY FOR GRID POINT CONTRIBUTIONS TO THE DFT GRADIENT=    346989 WORDS.
 STEP CPU TIME =     0.52 TOTAL CPU TIME =        107.4 (      1.8 MIN)
 TOTAL WALL CLOCK TIME=        110.5 SECONDS, CPU UTILIZATION IS    97.19%
 ...... END OF 2-ELECTRON GRADIENT ......
 STEP CPU TIME =     0.03 TOTAL CPU TIME =        107.4 (      1.8 MIN)
 TOTAL WALL CLOCK TIME=        110.5 SECONDS, CPU UTILIZATION IS    97.19%

 UNITS ARE HARTREE/BOHR    E'X               E'Y               E'Z 
    1 C               -0.000201557       0.000098595      -0.000026669
    2 N                0.000146074      -0.000067997       0.000396147
    3 H                0.000029430      -0.000032076      -0.000190105
    4 H                0.000036802       0.000010272       0.000137225
    5 H               -0.000010748      -0.000008795      -0.000316597
  $VIB   
          IVIB=   2 IATOM=   5 ICOORD=   3 E=      -94.5685001426
 -2.015572853E-04 9.859507901E-05-2.666895780E-05 1.460738847E-04-6.799682468E-05
  3.961470033E-04 2.942990514E-05-3.207591654E-05-1.901053990E-04 3.680155011E-05
  1.027246359E-05 1.372245328E-04-1.074805470E-05-8.794801390E-06-3.165971793E-04
 -5.507187001E-01 1.893142515E+00-6.423775882E-03
 ...... END OF NUMERICAL HESSIAN CALCULATION ......
 STEP CPU TIME =     0.02 TOTAL CPU TIME =        107.4 (      1.8 MIN)
 TOTAL WALL CLOCK TIME=        110.6 SECONDS, CPU UTILIZATION IS    97.18%

          ---------------
          ENERGY GRADIENT
          ---------------

 UNITS ARE HARTREE/BOHR    E'X               E'Y               E'Z 
    1 C               -0.000202011       0.000099155       0.000000000
    2 N                0.000153459      -0.000062728       0.000000000
    3 H                0.000029243      -0.000032150       0.000000000
    4 H                0.000036689       0.000010332       0.000000000
    5 H               -0.000017380      -0.000014609       0.000000000

          -------------------------------
          CARTESIAN FORCE CONSTANT MATRIX
          -------------------------------

                                   1                          2
                               C                          N         
                          X        Y        Z        X        Y        Z
  1   C            X 0.883566-0.105955-0.000000-0.553529 0.185918 0.000000
                   Y-0.105955 0.686381 0.000000 0.251133-0.228115-0.000000
                   Z-0.000000 0.000000 0.139717-0.000000 0.000000-0.047353
  2   N            X-0.553529 0.251133-0.000000 0.821069-0.068220-0.000000
                   Y 0.185918-0.228115 0.000000-0.068220 0.434708 0.000000
                   Z 0.000000-0.000000-0.047353-0.000000 0.000000 0.063483
  3   H            X-0.222249-0.124263 0.000000-0.037077-0.009979-0.000000
                   Y-0.128064-0.158513-0.000000 0.015641 0.018850 0.000000
                   Z-0.000000-0.000000-0.044426 0.000000 0.000000-0.009273
  4   H            X-0.067662 0.012947 0.000000-0.007518 0.040503 0.000000
                   Y 0.015497-0.301752-0.000000 0.013391-0.015404 0.000000
                   Z 0.000000-0.000000-0.050603-0.000000 0.000000 0.032755
  5   H            X-0.040127-0.033863 0.000000-0.222949-0.148222 0.000000
                   Y 0.032607 0.001993 0.000000-0.211951-0.210039-0.000000
                   Z 0.000000-0.000000 0.002666 0.000000-0.000000-0.039614

                                   3                          4
                               H                          H         
                          X        Y        Z        X        Y        Z
  3   H            X 0.258509 0.130615-0.000000 0.005192 0.002669 0.000000
                   Y 0.130615 0.152152-0.000000-0.023180-0.013836-0.000000
                   Z-0.000000-0.000000 0.026611 0.000000 0.000000 0.008078
  4   H            X 0.005192-0.023180 0.000000 0.066325-0.031606 0.000000
                   Y 0.002669-0.013836 0.000000-0.031606 0.325986 0.000000
                   Z 0.000000-0.000000 0.008078 0.000000 0.000000 0.023491
  5   H            X-0.004374 0.004988-0.000000 0.003663 0.000049 0.000000
                   Y 0.000959 0.001349-0.000000 0.001338 0.005006-0.000000
                   Z-0.000000 0.000000 0.019010-0.000000 0.000000-0.013721

                                   5
                               H         
                          X        Y        Z
  5   H            X 0.263788 0.177049-0.000000
                   Y 0.177049 0.201692 0.000000
                   Z-0.000000 0.000000 0.031660

          ------------------------          ----------------
          DIPOLE DERIVATIVE TENSOR          (DEBYE/ANGSTROM)
          ------------------------          ----------------

        ATOM                 MU-X           MU-Y           MU-Z
     C          D/DX     2.437969705   -0.103113227    0.000000000
                D/DY    -0.229615863    2.307282976    0.000000000
                D/DZ     0.000000000    0.000000000   -0.217850790
     N          D/DX    -2.244641682    0.829357955    0.000000000
                D/DY     1.445805447   -1.545135167    0.000000000
                D/DZ    -0.000000000    0.000000000   -2.108846939
     H          D/DX    -0.521656569   -0.362025338    0.000000000
                D/DY    -0.379520971   -0.153474690    0.000000000
                D/DZ     0.000000000   -0.000000000    0.402476808
     H          D/DX    -0.047692753    0.130773312    0.000000000
                D/DY     0.321338166   -0.990403956    0.000000000
                D/DZ     0.000000000    0.000000000    0.710216285
     H          D/DX     0.376358694   -0.494826104    0.000000000
                D/DY    -1.157875272    0.381844577    0.000000000
                D/DZ     0.000000000   -0.000000000    1.213917622

          --------------------------------------------------------
          NORMAL COORDINATE ANALYSIS IN THE HARMONIC APPROXIMATION
          --------------------------------------------------------

          ATOMIC WEIGHTS (AMU)

    1     C                12.00000
    2     N                14.00307
    3     H                 1.00782
    4     H                 1.00782
    5     H                 1.00782

 MODES    1 TO    6 ARE TAKEN AS ROTATIONS AND TRANSLATIONS.

 ANALYZING SYMMETRY OF NORMAL MODES...

 --- SYMMETRY FOR NORMAL MODES ---
 INCLUDING TRANSLATION AND ROTATION
   10*A'     5*A'' 
 EXCLUDING TRANSLATION AND ROTATION (SAYVETZ < 0.01)
    7*A'     2*A'' 

     FREQUENCIES IN CM**-1, IR INTENSITIES IN DEBYE**2/AMU-ANGSTROM**2,
     REDUCED MASSES IN AMU.

                            1           2           3           4           5
       FREQUENCY:         0.17        0.05        0.01        7.00       10.75  
        SYMMETRY:         A'          A''         A'          A'          A'' 
    REDUCED MASS:      5.89433     5.79137     5.80542     2.31734     1.51825
    IR INTENSITY:      0.00013     0.00000     0.00000     0.22699     0.07250

  1   C            X  0.05928895  0.00000001  0.17535526  0.06570547  0.00000000
                   Y  0.17201859 -0.00000000 -0.06084173  0.14209317  0.00000000
                   Z -0.00000000  0.18629056 -0.00000001 -0.00000000  0.12845141
  2   N            X  0.06270563  0.00000001  0.17535800 -0.07753398 -0.00000000
                   Y  0.17849153 -0.00000000 -0.06083658 -0.12939481 -0.00000000
                   Z -0.00000000  0.18494622 -0.00000001  0.00000000 -0.10915071
  3   H            X  0.06277059  0.00000001  0.17535605 -0.08023383 -0.00000000
                   Y  0.16675968 -0.00000000 -0.06084311  0.36242782  0.00000000
                   Z -0.00000000  0.18734395 -0.00000001 -0.00000000  0.58243845
  4   H            X  0.05301016  0.00000001  0.17535103  0.32887852  0.00000000
                   Y  0.17115651 -0.00000000 -0.06084256  0.17821714  0.00000000
                   Z -0.00000000  0.18650589 -0.00000001  0.00000000 -0.08276145
  5   H            X  0.05875507  0.00000001  0.17535179  0.08816321 -0.00000000
                   Y  0.18289876 -0.00000000 -0.06083092 -0.31429456 -0.00000000
                   Z -0.00000000  0.18406335 -0.00000001  0.00000000 -0.53306315

 TRANS. SAYVETZ    X  1.76544026  0.00000017  5.08998873  0.04219529 -0.00000000
                   Y  5.08854281 -0.00000003 -1.76594444  0.12131504 -0.00000000
                   Z -0.00000003  5.38758046 -0.00000017 -0.00000000 -0.02067552
               TOTAL  5.38609759  5.38758046  5.38762888  0.12844369  0.02067552

   ROT. SAYVETZ    X -0.00000000  0.00998860 -0.00000000 -0.00000000  0.76678205
                   Y -0.00000000  0.02853291 -0.00000000 -0.00000000  6.12967747
                   Z  0.18643799  0.00000000  0.00014497 -7.81800584 -0.00000000
               TOTAL  0.18643799  0.03023077  0.00014497  7.81800584  6.17745098

                            6           7           8           9          10
       FREQUENCY:        16.35     1084.09     1090.91     1175.05     1389.93  
        SYMMETRY:         A''         A'          A''         A''         A'  
    REDUCED MASS:      1.57710     1.07526     1.36833     1.06925     1.39177
    IR INTENSITY:      0.93794     0.84789     0.27671     1.15777     1.04584

  1   C            X -0.00000000 -0.01796571  0.00000000 -0.00000000 -0.05272375
                   Y -0.00000000 -0.06595671  0.00000000 -0.00000000 -0.09677649
                   Z  0.10293355 -0.00000000 -0.14662984 -0.00581119 -0.00000000
  2   N            X  0.00000000  0.02890705 -0.00000000 -0.00000000  0.00443034
                   Y  0.00000000 -0.00611770 -0.00000000  0.00000000  0.10457149
                   Z -0.13716524  0.00000000  0.04568915 -0.06627312  0.00000000
  3   H            X -0.00000000 -0.30749503  0.00000000 -0.00000000 -0.26643149
                   Y -0.00000000  0.37919634 -0.00000000  0.00000000  0.21081516
                   Z -0.27805381  0.00000000  0.53298255  0.50647719  0.00000000
  4   H            X -0.00000000  0.52809442 -0.00000000  0.00000000  0.35230903
                   Y -0.00000000  0.00077476 -0.00000000 -0.00000000 -0.03855228
                   Z  0.67104572  0.00000000  0.64686230 -0.28612700  0.00000000
  5   H            X  0.00000000 -0.40834177  0.00000000 -0.00000000  0.48034705
                   Y -0.00000000  0.49040162 -0.00000000  0.00000000 -0.47290743
                   Z  0.27757956 -0.00000000 -0.06877188  0.76968833 -0.00000000

 TRANS. SAYVETZ    X -0.00000000 -0.00001253 -0.00000000 -0.00000000  0.00000867
                   Y -0.00000000  0.00003635 -0.00000000  0.00000000  0.00000692
                   Z -0.00971324 -0.00000000 -0.00000264  0.00002410  0.00000000
               TOTAL  0.00971324  0.00003845  0.00000264  0.00002410  0.00001109

   ROT. SAYVETZ    X  3.90814476  0.00000000 -0.00075492 -0.00043307 -0.00000000
                   Y  2.77859007 -0.00000000 -0.00172734  0.00028586  0.00000000
                   Z  0.00000000  0.00007419 -0.00000000  0.00000000  0.00136335
               TOTAL  4.79522244  0.00007419  0.00188510  0.00051891  0.00136335

                           11          12          13          14          15
       FREQUENCY:      1514.46     1734.04     3038.39     3142.04     3401.90  
        SYMMETRY:         A'          A'          A'          A'          A'  
    REDUCED MASS:      1.20970     4.14574     1.06285     1.10758     1.07602
    IR INTENSITY:      0.11405     0.58789     1.19912     0.99040     0.18036

  1   C            X  0.03626168  0.18852270  0.03583987 -0.05919874  0.00205290
                   Y -0.01318645 -0.08806354 -0.05845333 -0.06831567 -0.01104009
                   Z -0.00000000 -0.00000000 -0.00000000  0.00000000  0.00000000
  2   N            X -0.09752821 -0.13131071 -0.00018444  0.00351239 -0.05565160
                   Y  0.04550522  0.06617811  0.00267551  0.00248664 -0.04090658
                   Z  0.00000000  0.00000000  0.00000000  0.00000000 -0.00000000
  3   H            X  0.39958391 -0.05059766 -0.28345152  0.73659337  0.02067577
                   Y -0.52604108  0.27001804 -0.21321145  0.49555778  0.02174069
                   Z -0.00000000 -0.00000000  0.00000000  0.00000000 -0.00000000
  4   H            X  0.60725775 -0.25860441 -0.09807896 -0.04747076 -0.00027662
                   Y  0.03453510 -0.14691685  0.89356181  0.31921734  0.05349311
                   Z  0.00000000  0.00000000  0.00000000  0.00000000  0.00000000
  5   H            X -0.08350302 -0.11102803 -0.04264569 -0.03305288  0.72840592
                   Y  0.01625152  0.00597357 -0.02153251 -0.03589628  0.62459198
                   Z -0.00000000 -0.00000000  0.00000000  0.00000000  0.00000000

 TRANS. SAYVETZ    X  0.00000959  0.00000094  0.00000039  0.00000287  0.00000609
                   Y  0.00000203  0.00001906 -0.00000152  0.00000606  0.00000307
                   Z  0.00000000 -0.00000000  0.00000000  0.00000000 -0.00000000
               TOTAL  0.00000980  0.00001908  0.00000157  0.00000670  0.00000683

   ROT. SAYVETZ    X  0.00000000  0.00000000  0.00000000  0.00000000  0.00000000
                   Y  0.00000000 -0.00000000 -0.00000000  0.00000000 -0.00000000
                   Z  0.00013906 -0.00032346 -0.00004045  0.00017301  0.00000143
               TOTAL  0.00013906  0.00032346  0.00004045  0.00017301  0.00000143

 REFERENCE ON SAYVETZ CONDITIONS - A. SAYVETZ, J.CHEM.PHYS., 7, 383-389(1939).

 NOTE - THE MODES J,K ARE ORTHONORMALIZED ACCORDING TO
 SUM ON I   M(I) * (X(I,J)*X(I,K) + Y(I,J)*Y(I,K) + Z(I,J)*Z(I,K)) = DELTA(J,K)

  MODE FREQ(CM**-1)  SYMMETRY  RED. MASS  IR INTENS.
     1       0.167    A'       5.894333    0.000128
     2       0.051    A''      5.791367    0.000000
     3       0.007    A'       5.805421    0.000000
     4       6.997    A'       2.317337    0.226993
     5      10.749    A''      1.518248    0.072499
     6      16.350    A''      1.577097    0.937939
     7    1084.095    A'       1.075257    0.847887
     8    1090.911    A''      1.368329    0.276712
     9    1175.045    A''      1.069251    1.157770
    10    1389.928    A'       1.391766    1.045838
    11    1514.460    A'       1.209703    0.114047
    12    1734.041    A'       4.145737    0.587892
    13    3038.393    A'       1.062850    1.199122
    14    3142.040    A'       1.107577    0.990402
    15    3401.904    A'       1.076022    0.180359

     -------------------------------
     THERMOCHEMISTRY AT T=  298.15 K
     -------------------------------

 USING IDEAL GAS, RIGID ROTOR, HARMONIC NORMAL MODE APPROXIMATIONS.
 P=  1.01325E+05 PASCAL.
 ALL FREQUENCIES ARE SCALED BY   1.00000
 THE MOMENTS OF INERTIA ARE (IN AMU*BOHR**2)
              9.16141            51.99457            61.15598
 THE ROTATIONAL SYMMETRY NUMBER IS  1.0
 THE ROTATIONAL CONSTANTS ARE (IN GHZ)
    196.81350    34.67839    29.48343
      7 -     15 VIBRATIONAL MODES ARE USED IN THERMOCHEMISTRY.
 THE HARMONIC ZERO POINT ENERGY IS (SCALED BY   1.000)
        0.040029 HARTREE/MOLECULE     8785.408611 CM**-1/MOLECULE 
       25.118769 KCAL/MOL              105.096929 KJ/MOL

               Q               LN Q
 ELEC.     1.00000E+00       0.000000
 TRANS.    6.14677E+06      15.631437
 ROT.      1.93206E+03       7.566343
 VIB.      1.01625E+00       0.016124
 TOT.      1.20690E+10      23.213903

              E         H         G         CV        CP        S
           KJ/MOL    KJ/MOL    KJ/MOL   J/MOL-K   J/MOL-K   J/MOL-K
 ELEC.      0.000     0.000     0.000     0.000     0.000     0.000
 TRANS.     3.718     6.197   -38.749    12.472    20.786   150.752
 ROT.       3.718     3.718   -18.757    12.472    12.472    75.381
 VIB.     105.320   105.320   105.057     4.254     4.254     0.884
 TOTAL    112.757   115.236    47.551    29.197    37.512   227.017
 VIB. THERMAL CORRECTION E(T)-E(0) = H(T)-H(0) =       223.490 J/MOL

              E         H         G         CV        CP        S
         KCAL/MOL  KCAL/MOL  KCAL/MOL CAL/MOL-K CAL/MOL-K CAL/MOL-K
 ELEC.      0.000     0.000     0.000     0.000     0.000     0.000
 TRANS.     0.889     1.481    -9.261     2.981     4.968    36.031
 ROT.       0.889     0.889    -4.483     2.981     2.981    18.017
 VIB.      25.172    25.172    25.109     1.017     1.017     0.211
 TOTAL     26.950    27.542    11.365     6.978     8.966    54.258
 VIB. THERMAL CORRECTION E(T)-E(0) = H(T)-H(0) =        53.415 CAL/MOL
 ......END OF NORMAL COORDINATE ANALYSIS......
 STEP CPU TIME =     0.00 TOTAL CPU TIME =        107.4 (      1.8 MIN)
 TOTAL WALL CLOCK TIME=        110.6 SECONDS, CPU UTILIZATION IS    97.17%
               1055352  WORDS OF DYNAMIC MEMORY USED
 EXECUTION OF GAMESS TERMINATED NORMALLY Mon Oct  3 21:47:41 2022
 DDI: 263640 bytes (0.3 MB / 0 MWords) used by master data server.

 ----------------------------------------
 CPU timing information for all processes
 ========================================
 0: 105.605 + 1.848 = 107.453
 ----------------------------------------
 ddikick.x: exited gracefully.
----- accounting info -----
Files used on the master node chemcompute-node-1.novalocal were:
-rw-r--r--. 1 chemcomp chemcomp      803 Oct  3 21:45 /scratch/120487/460056.F05
-rw-rw-r--. 1 chemcomp chemcomp 70451200 Oct  3 21:47 /scratch/120487/460056.F10
-rw-rw-r--. 1 chemcomp chemcomp  2720984 Oct  3 21:47 /scratch/120487/460056.F22
Mon Oct  3 21:47:44 UTC 2022
0.099u 0.039s 1:53.92 0.1%	0+0k 8+208io 0pf+0w
Finishing Up...
Looking for IR data...
Looking for Raman data...
vibramans not found
Looking for thermodynamics data...
Looking for UV-Vis data...
chemcompute.org
{'UTCtimestamp': '2022-10-03T21:47:46.252496', 'cluster': 'jetstream2', 'clusterJobNumber': '120487', 'status': 'COMPLETE', 'nodeList': 'chemcompute-node-1'}
120487
