chemcompute.org
{'UTCtimestamp': '2022-10-03T20:56:17.079486', 'cluster': 'jetstream2', 'clusterJobNumber': '120457', 'status': 'RUNNING', 'nodeList': 'chemcompute-node-2'}
----- GAMESS execution script 'rungms' -----
This job is running on host chemcompute-node-2.novalocal
under operating system Linux at Mon Oct 3 20:56:21 UTC 2022
SLURM has assigned the following compute nodes to this run:
Available scratch disk space (Kbyte units) at beginning of the job is
Filesystem     1K-blocks     Used Available Use% Mounted on
/dev/sda1       62903276 10942580  51960696  18% /
GAMESS temporary binary files will be written to /scratch/120457
GAMESS supplementary output files will be written to /data/slurm/46/460018
Copying input file 460018.inp to your run's scratch directory...
The generated host list is
chemcompute-node-2.novalocal

 Distributed Data Interface kickoff program.
 Initiating 1 compute processes on 1 nodes to run the following command:
 /data/gamess-2019R1-avx2-ddi/gamess.00.x 460018 

          ******************************************************
          *         GAMESS VERSION = 30 JUN 2019 (R1)          *
          *             FROM IOWA STATE UNIVERSITY             *
          * M.W.SCHMIDT, K.K.BALDRIDGE, J.A.BOATZ, S.T.ELBERT, *
          *   M.S.GORDON, J.H.JENSEN, S.KOSEKI, N.MATSUNAGA,   *
          *          K.A.NGUYEN, S.J.SU, T.L.WINDUS,           *
          *       TOGETHER WITH M.DUPUIS, J.A.MONTGOMERY       *
          *         J.COMPUT.CHEM.  14, 1347-1363(1993)        *
          **************** 64 BIT INTEL VERSION ****************

  SINCE 1993, STUDENTS AND POSTDOCS WORKING AT IOWA STATE UNIVERSITY
  AND ALSO IN THEIR VARIOUS JOBS AFTER LEAVING ISU HAVE MADE IMPORTANT
  CONTRIBUTIONS TO THE CODE:
     IVANA ADAMOVIC, CHRISTINE AIKENS, YURI ALEXEEV, POOJA ARORA,
     ANDREY ASADCHEV, ROB BELL, PRADIPTA BANDYOPADHYAY, JONATHAN BENTZ,
     COLLEEN BERTONI, BRETT BODE, KURT BRORSEN, CALEB CARLIN, GALINA CHABAN,
     WEI CHEN, CHEOL HO CHOI, PAUL DAY, ALBERT DEFUSCO, NUWAN DESILVA,
     TIM DUDLEY, DMITRI FEDOROV, ALEX FINDLATER, GRAHAM FLETCHER, 
     MARK FREITAG, KURT GLAESEMANN, ANASTASIA GUNINA,
     DAN KEMP, GRANT MERRILL, NORIYUKI MINEZAWA, JONATHAN MULLIN,
     TAKESHI NAGATA, SEAN NEDD, HEATHER NETZLOFF, BOSILJKA NJEGIC, RYAN OLSON,
     MIKE PAK, BUU PHAM,
     SPENCER PRUITT, LUKE ROSKOP, JIM SHOEMAKER, LYUDMILA SLIPCHENKO,
     TONY SMITH, SAROM SOK LEANG, JIE SONG, TETSUYA TAKETSUGU, SIMON WEBB,
     PENG XU, SOOHAENG YOO, FEDERICO ZAHARIEV

  ADDITIONAL CODE HAS BEEN PROVIDED BY COLLABORATORS IN OTHER GROUPS:
     IOWA STATE UNIVERSITY:
          JOE IVANIC, AARON WEST, LAIMUTIS BYTAUTAS, KLAUS RUEDENBERG
     UNIVERSITY OF TOKYO: KIMIHIKO HIRAO, TAKAHITO NAKAJIMA,
          TAKAO TSUNEDA, MUNEAKI KAMIYA, SUSUMU YANAGISAWA,
          KIYOSHI YAGI, MAHITO CHIBA, SEIKEN TOKURA, NAOAKI KAWAKAMI
     UNIVERSITY OF AARHUS: FRANK JENSEN
     UNIVERSITY OF IOWA: VISVALDAS KAIRYS, HUI LI
     NATIONAL INST. OF STANDARDS AND TECHNOLOGY: WALT STEVENS, DAVID GARMER
     UNIVERSITY OF PISA: BENEDETTA MENNUCCI, JACOPO TOMASI
     UNIVERSITY OF MEMPHIS: HENRY KURTZ, PRAKASHAN KORAMBATH
     UNIVERSITY OF ALBERTA: TOBY ZENG, MARIUSZ KLOBUKOWSKI
     UNIVERSITY OF NEW ENGLAND: MARK SPACKMAN
     MIE UNIVERSITY: HIROAKI UMEDA
     NAT. INST. OF ADVANCED INDUSTRIAL SCIENCE AND TECHNOLOGY: KAZUO KITAURA
     MICHIGAN STATE UNIVERSITY:
          KAROL KOWALSKI, MARTA WLOCH, JEFFREY GOUR, JESSE LUTZ,
          WEI LI, JUN SHEN, J. EMILIANO DEUSTUA, PIOTR PIECUCH
     UNIVERSITY OF MINNESOTA:
          YINAN SHU
     UNIVERSITY OF SILESIA: MONIKA MUSIAL, STANISLAW KUCHARSKI
     FACULTES UNIVERSITAIRES NOTRE-DAME DE LA PAIX:
          OLIVIER QUINET, BENOIT CHAMPAGNE
     UNIVERSITY OF CALIFORNIA - SANTA BARBARA: BERNARD KIRTMAN
     INSTITUTE FOR MOLECULAR SCIENCE:
          KAZUYA ISHIMURA, MICHIO KATOUDA, AND SHIGERU NAGASE
     UNIVERSITY OF NOTRE DAME: ANNA POMOGAEVA, DAN CHIPMAN
     KYUSHU UNIVERSITY:
          HARUYUKI NAKANO,
          FENG LONG GU, JACEK KORCHOWIEC, MARCIN MAKOWSKI, AND YURIKO AOKI,
          HIROTOSHI MORI AND EISAKU MIYOSHI
     PENNSYLVANIA STATE UNIVERSITY:
          TZVETELIN IORDANOV, CHET SWALINA, JONATHAN SKONE,
          SHARON HAMMES-SCHIFFER
     WASEDA UNIVERSITY:
          MASATO KOBAYASHI, TOMOKO AKAMA, TSUGUKI TOUMA,
          TAKESHI YOSHIKAWA, YASUHIRO IKABATA, JUNJI SEINO,
          YUYA NAKAJIMA, HIROMI NAKAI
     NANJING UNIVERSITY: SHUHUA LI
     UNIVERSITY OF NEBRASKA:
          PEIFENG SU, DEJUN SI, NANDUN THELLAMUREGE, YALI WANG, HUI LI
     UNIVERSITY OF ZURICH: ROBERTO PEVERATI, KIM BALDRIDGE
     N. COPERNICUS UNIVERSITY AND JACKSON STATE UNIVERSITY:
          MARIA BARYSZ
     UNIVERSITY OF COPENHAGEN: Jimmy Kromann, CASPER STEINMANN
     TOKYO INSTITUTE OF TECHNOLOGY: HIROYA NAKATA
     NAGOYA UNIVERSITY: YOSHIO NISHIMOTO, STEPHAN IRLE
     MOSCOW STATE UNIVERSITY: VLADIMIR MIRONOV
     A.N.NESMEYANOV INSTITUTE OF ORGANOELEMENT COMPOUNDS OF RUSSIAN ACADEMY OF SCIENCES:
          IGOR S. GERASIMOV

 EXECUTION OF GAMESS BEGUN Mon Oct  3 20:56:21 2022

            ECHO OF THE FIRST FEW INPUT CARDS -
 INPUT CARD>!                                                                               
 INPUT CARD>!   GAMESS Calculation input file                                               
 INPUT CARD>!                                                                               
 INPUT CARD>!                                                                               
 INPUT CARD> $CONTRL SCFTYP=RHF MAXIT=200 RUNTYP=OPTIMIZE                                   
 INPUT CARD>         COORD=UNIQUE MULT=1                                                    
 INPUT CARD>         ICHARG=0                                                               
 INPUT CARD>         DFTTYP=B3LYP                                                           
 INPUT CARD>         MOLPLT=.FALSE. PLTORB=.FALSE.  $END                                    
 INPUT CARD> $SYSTEM TIMLIM=2879 MWORDS=250  $END                                           
 INPUT CARD>                                                                                
 INPUT CARD> $FORCE METHOD=SEMINUM NVIB=2 $END                                              
 INPUT CARD> $STATPT OPTTOL=0.0005 NSTEP=999 $END                                           
 INPUT CARD> $STATPT IHREP=0 HSSEND=.TRUE.  $END                                            
 INPUT CARD>                                                                                
 INPUT CARD> $DFT    METHOD=GRID  NLEB=590  $END                                            
 INPUT CARD>                                                                                
 INPUT CARD> $BASIS  GBASIS=N31 NGAUSS=6                                                    
 INPUT CARD>         NDFUNC=1   NPFUNC=0  $END                                              
 INPUT CARD>                                                                                
 INPUT CARD> $SCF    DIRSCF=.T. $END                                                        
 INPUT CARD> $GUESS  GUESS=HUCKEL  $END                                                     
 INPUT CARD>                                                                                
 INPUT CARD> $DATA                                                                          
 INPUT CARD>                                                                                
 INPUT CARD>  C1                                                                            
 INPUT CARD>C     6.0     0.41911    -0.62075     0.16028                                   
 INPUT CARD>C     6.0     1.74322    -0.60923    -0.05234                                   
 INPUT CARD>C     6.0    -0.39983     0.58150    -0.11159                                   
 INPUT CARD>O     8.0    -1.61484     0.56472     0.01442                                   
 INPUT CARD>H     1.0    -0.10562    -1.49395     0.53083                                   
 INPUT CARD>H     1.0     2.26596     0.26329    -0.43063                                   
 INPUT CARD>H     1.0     2.33643    -1.49503     0.14692                                   
 INPUT CARD>H     1.0     0.14615     1.48462    -0.43252                                   
 INPUT CARD> $END                                                                           
 INPUT CARD>                                                                                
 INPUT CARD>                                                                                
 INPUT CARD>! Customizations after this line are persisted when using Do More Calculations  
  250000000 WORDS OF MEMORY AVAILABLE

     BASIS OPTIONS
     -------------
     GBASIS=N31          IGAUSS=       6      POLAR=POPN31  
     NDFUNC=       1     NFFUNC=       0     DIFFSP=       F
     NPFUNC=       0      DIFFS=       F     BASNAM=        


     RUN TITLE
     ---------
                                                                                 

 THE POINT GROUP OF THE MOLECULE IS C1      
 THE ORDER OF THE PRINCIPAL AXIS IS     0

 ATOM      ATOMIC                      COORDINATES (BOHR)
           CHARGE         X                   Y                   Z
 C           6.0     0.7920030587       -1.1730474069        0.3028852813
 C           6.0     3.2942081363       -1.1512777635       -0.0989082582
 C           6.0    -0.7555691417        1.0988756619       -0.2108745230
 O           8.0    -3.0516051140        1.0671660598        0.0272498487
 H           1.0    -0.1995928588       -2.8231561394        1.0031232461
 H           1.0     4.2820434991        0.4975459553       -0.8137727021
 H           1.0     4.4152124895       -2.8251970434        0.2776385421
 H           1.0     0.2761834531        2.8055249959       -0.8173442842

          INTERNUCLEAR DISTANCES (ANGS.)
          ------------------------------

                1 C          2 C          3 C          4 O          5 H     

   1 C       0.0000000    1.3411216 *  1.4798585 *  2.3587214 *  1.0840328 *
   2 C       1.3411216 *  0.0000000    2.4523482 *  3.5579745    2.1309683 *
   3 C       1.4798585 *  2.4523482 *  0.0000000    1.2216421 *  2.1924315 *
   4 O       2.3587214 *  3.5579745    1.2216421 *  0.0000000    2.6043322 *
   5 H       1.0840328 *  2.1309683 *  2.1924315 *  2.6043322 *  0.0000000  
   6 H       2.1310927 *  1.0851966 *  2.7036051 *  3.9178487    3.1043018  
   7 H       2.1072874 *  1.0845480 *  3.4446949    4.4578763    2.4720429 *
   8 H       2.2042010 *  2.6607099 *  1.1030485 *  2.0364325 *  3.1405908  

                6 H          7 H          8 H     

   1 C       2.1310927 *  2.1072874 *  2.2042010 *
   2 C       1.0851966 *  1.0845480 *  2.6607099 *
   3 C       2.7036051 *  3.4446949    1.1030485 *
   4 O       3.9178487    4.4578763    2.0364325 *
   5 H       3.1043018    2.4720429 *  3.1405908  
   6 H       0.0000000    1.8520851 *  2.4464760 *
   7 H       1.8520851 *  0.0000000    3.7431793  
   8 H       2.4464760 *  3.7431793    0.0000000  

  * ... LESS THAN  3.000


     ATOMIC BASIS SET
     ----------------
 THE CONTRACTED PRIMITIVE FUNCTIONS HAVE BEEN UNNORMALIZED
 THE CONTRACTED BASIS FUNCTIONS ARE NOW NORMALIZED TO UNITY

  SHELL TYPE  PRIMITIVE        EXPONENT          CONTRACTION COEFFICIENT(S)

 C         

      1   S       1          3047.5248800    0.001834737132
      1   S       2           457.3695180    0.014037322813
      1   S       3           103.9486850    0.068842622264
      1   S       4            29.2101553    0.232184443216
      1   S       5             9.2866630    0.467941348435
      1   S       6             3.1639270    0.362311985337

      2   L       7             7.8682723   -0.119332419775    0.068999066591
      2   L       8             1.8812885   -0.160854151696    0.316423960957
      2   L       9             0.5442493    1.143456437840    0.744308290898

      3   L      10             0.1687145    1.000000000000    1.000000000000

      4   D      11             0.8000000    1.000000000000

 C         

      5   S      12          3047.5248800    0.001834737132
      5   S      13           457.3695180    0.014037322813
      5   S      14           103.9486850    0.068842622264
      5   S      15            29.2101553    0.232184443216
      5   S      16             9.2866630    0.467941348435
      5   S      17             3.1639270    0.362311985337

      6   L      18             7.8682723   -0.119332419775    0.068999066591
      6   L      19             1.8812885   -0.160854151696    0.316423960957
      6   L      20             0.5442493    1.143456437840    0.744308290898

      7   L      21             0.1687145    1.000000000000    1.000000000000

      8   D      22             0.8000000    1.000000000000

 C         

      9   S      23          3047.5248800    0.001834737132
      9   S      24           457.3695180    0.014037322813
      9   S      25           103.9486850    0.068842622264
      9   S      26            29.2101553    0.232184443216
      9   S      27             9.2866630    0.467941348435
      9   S      28             3.1639270    0.362311985337

     10   L      29             7.8682723   -0.119332419775    0.068999066591
     10   L      30             1.8812885   -0.160854151696    0.316423960957
     10   L      31             0.5442493    1.143456437840    0.744308290898

     11   L      32             0.1687145    1.000000000000    1.000000000000

     12   D      33             0.8000000    1.000000000000

 O         

     13   S      34          5484.6716600    0.001831074430
     13   S      35           825.2349460    0.013950172200
     13   S      36           188.0469580    0.068445078098
     13   S      37            52.9645000    0.232714335992
     13   S      38            16.8975704    0.470192897984
     13   S      39             5.7996353    0.358520852987

     14   L      40            15.5396162   -0.110777549525    0.070874268231
     14   L      41             3.5999336   -0.148026262701    0.339752839147
     14   L      42             1.0137618    1.130767015354    0.727158577316

     15   L      43             0.2700058    1.000000000000    1.000000000000

     16   D      44             0.8000000    1.000000000000

 H         

     17   S      45            18.7311370    0.033494604338
     17   S      46             2.8253944    0.234726953484
     17   S      47             0.6401217    0.813757326146

     18   S      48             0.1612778    1.000000000000

 H         

     19   S      49            18.7311370    0.033494604338
     19   S      50             2.8253944    0.234726953484
     19   S      51             0.6401217    0.813757326146

     20   S      52             0.1612778    1.000000000000

 H         

     21   S      53            18.7311370    0.033494604338
     21   S      54             2.8253944    0.234726953484
     21   S      55             0.6401217    0.813757326146

     22   S      56             0.1612778    1.000000000000

 H         

     23   S      57            18.7311370    0.033494604338
     23   S      58             2.8253944    0.234726953484
     23   S      59             0.6401217    0.813757326146

     24   S      60             0.1612778    1.000000000000

 TOTAL NUMBER OF BASIS SET SHELLS             =   24
 NUMBER OF CARTESIAN GAUSSIAN BASIS FUNCTIONS =   68
 NUMBER OF ELECTRONS                          =   30
 CHARGE OF MOLECULE                           =    0
 SPIN MULTIPLICITY                            =    1
 NUMBER OF OCCUPIED ORBITALS (ALPHA)          =   15
 NUMBER OF OCCUPIED ORBITALS (BETA )          =   15
 TOTAL NUMBER OF ATOMS                        =    8
 THE NUCLEAR REPULSION ENERGY IS      102.8023683694

 SELECTED MURRAY-HANDY-LAMING RADIAL GRID

 LEGACY BECKE'S FUZZY CELL METHOD

 SELECTED ORIGINAL BECKE'S PARTITION FUNCTION

     LEBEDEV GRID-BASED DFT OPTIONS
     ------------------------------
     DFTTYP=B3LYP   
     NRAD  =      96     NLEB  =     590
     NRAD0 =      24     NLEB0 =     110
     SWOFF =    5.00E-03 (PURE SCF -> DFT)
     SWITCH=    3.00E-04 (COARSE -> TIGHT GRID)
     THRESH=    0.00E+00 GTHRE=    1.00E+00

 GRIMME'S EMPIRICAL DISPERSION CORRECTION= F

     $CONTRL OPTIONS
     ---------------
 SCFTYP=RHF          RUNTYP=OPTIMIZE     EXETYP=RUN     
 MPLEVL=       0     CITYP =NONE         CCTYP =NONE         VBTYP =NONE    
 DFTTYP=B3LYP        TDDFT =NONE    
 MULT  =       1     ICHARG=       0     NZVAR =       0     COORD =UNIQUE  
 PP    =NONE         RELWFN=NONE         LOCAL =NONE         NUMGRD=       F
 ISPHER=      -1     NOSYM =       0     MAXIT =     200     UNITS =ANGS    
 PLTORB=       F     MOLPLT=       F     AIMPAC=       F     FRIEND=        
 NPRINT=       7     IREST =       0     GEOM  =INPUT   
 NORMF =       0     NORMP =       0     ITOL  =      20     ICUT  =       9
 INTTYP=BEST         GRDTYP=BEST         QMTTOL= 1.0E-06

     $SYSTEM OPTIONS
     ---------------
  REPLICATED MEMORY=   250000000 WORDS (ON EVERY NODE).
 DISTRIBUTED MEMDDI=           0 MILLION WORDS IN AGGREGATE,
 MEMDDI DISTRIBUTED OVER   1 PROCESSORS IS           0 WORDS/PROCESSOR.
 TOTAL MEMORY REQUESTED ON EACH PROCESSOR=   250000000 WORDS.
 TIMLIM=        2879.00 MINUTES, OR       2.0 DAYS.
 PARALL= F  BALTYP=  DLB     KDIAG=    0  COREFL= F
 MXSEQ2=     300 MXSEQ3=     150  mem10=         0

          ----------------
          PROPERTIES INPUT
          ----------------

     MOMENTS            FIELD           POTENTIAL          DENSITY
 IEMOM =       1   IEFLD =       0   IEPOT =       0   IEDEN =       0
 WHERE =COMASS     WHERE =NUCLEI     WHERE =NUCLEI     WHERE =NUCLEI  
 OUTPUT=BOTH       OUTPUT=BOTH       OUTPUT=BOTH       OUTPUT=BOTH    
 IEMINT=       0   IEFINT=       0                     IEDINT=       0
                                                       MORB  =       0
          EXTRAPOLATION IN EFFECT
          DIIS IN EFFECT
 ORBITAL PRINTING OPTION: NPREO=     1    68     2     1

     -------------------------------
     INTEGRAL TRANSFORMATION OPTIONS
     -------------------------------
     NWORD  =            0
     CUTOFF = 1.0E-09     MPTRAN =       0
     DIRTRF =       T     AOINTS =DUP     

          ----------------------
          INTEGRAL INPUT OPTIONS
          ----------------------
 NOPK  =       1 NORDER=       0 SCHWRZ=       T

     ------------------------------------------
     THE POINT GROUP IS C1 , NAXIS= 0, ORDER= 1
     ------------------------------------------

     DIMENSIONS OF THE SYMMETRY SUBSPACES ARE
 A   =   68

 ..... DONE SETTING UP THE RUN .....
 STEP CPU TIME =     0.02 TOTAL CPU TIME =          0.0 (      0.0 MIN)
 TOTAL WALL CLOCK TIME=          0.0 SECONDS, CPU UTILIZATION IS    66.67%


          -----------------------------
          STATIONARY POINT LOCATION RUN
          -----------------------------

 OBTAINING INITIAL HESSIAN, HESS=GUESS   
 CARTESIAN COORDINATE OPTIMIZATION USING BADGER'S RULE FORCE CONSTANT GUESS

          PARAMETERS CONTROLLING GEOMETRY SEARCH ARE
          METHOD =QA                  UPHESS =BFGS    
          NNEG   =         0          NFRZ   =         0
          NSTEP  =       999          IFOLOW =         1
          HESS   =GUESS               RESTAR =         F
          IHREP  =         0          HSSEND =         T
          NPRT   =         0          NPUN   =         0
          OPTTOL = 5.000E-04          RMIN   = 1.500E-03
          RMAX   = 1.000E-01          RLIM   = 7.000E-02
          DXMAX  = 3.000E-01          PURIFY =         F
          MOVIE  =         F          TRUPD  =         T
          TRMAX  = 5.000E-01          TRMIN  = 5.000E-02
          ITBMAT =         5          STPT   =         F
          STSTEP = 1.000E-02          PROJCT=          T

 BEGINNING GEOMETRY SEARCH POINT NSERCH=   0 ...

 COORDINATES OF ALL ATOMS ARE (ANGS)
   ATOM   CHARGE       X              Y              Z
 ------------------------------------------------------------
 C           6.0   0.4191100000  -0.6207500000   0.1602800000
 C           6.0   1.7432200000  -0.6092300000  -0.0523400000
 C           6.0  -0.3998300000   0.5815000000  -0.1115900000
 O           8.0  -1.6148400000   0.5647200000   0.0144200000
 H           1.0  -0.1056200000  -1.4939500000   0.5308300000
 H           1.0   2.2659600000   0.2632900000  -0.4306300000
 H           1.0   2.3364300000  -1.4950300000   0.1469200000
 H           1.0   0.1461500000   1.4846200000  -0.4325200000

          ********************
          1 ELECTRON INTEGRALS
          ********************
 ...... END OF ONE-ELECTRON INTEGRALS ......
 STEP CPU TIME =     0.00 TOTAL CPU TIME =          0.0 (      0.0 MIN)
 TOTAL WALL CLOCK TIME=          0.1 SECONDS, CPU UTILIZATION IS    40.00%

          -------------
          GUESS OPTIONS
          -------------
          GUESS =HUCKEL            NORB  =       0          NORDER=       0
          MIX   =       F          PRTMO =       F          PUNMO =       F
          TOLZ  = 1.0E-08          TOLE  = 1.0E-05
          SYMDEN=       F          PURIFY=       F

 INITIAL GUESS ORBITALS GENERATED BY HUCKEL   ROUTINE.
 HUCKEL GUESS REQUIRES     42032 WORDS.

 SYMMETRIES FOR INITIAL GUESS ORBITALS FOLLOW.   BOTH SET(S).
    15 ORBITALS ARE OCCUPIED (    4 CORE ORBITALS).
     5=A        6=A        7=A        8=A        9=A       10=A       11=A   
    12=A       13=A       14=A       15=A       16=A       17=A       18=A   
    19=A       20=A       21=A       22=A       23=A       24=A       25=A   
 ...... END OF INITIAL ORBITAL SELECTION ......
 STEP CPU TIME =     0.01 TOTAL CPU TIME =          0.0 (      0.0 MIN)
 TOTAL WALL CLOCK TIME=          0.1 SECONDS, CPU UTILIZATION IS    42.86%

                    ----------------------
                    AO INTEGRAL TECHNOLOGY
                    ----------------------
     S,P,L SHELL ROTATED AXIS INTEGRALS, REPROGRAMMED BY
        KAZUYA ISHIMURA (IMS) AND JOSE SIERRA (SYNSTAR).
     S,P,D,L SHELL ROTATED AXIS INTEGRALS PROGRAMMED BY
        KAZUYA ISHIMURA (INSTITUTE FOR MOLECULAR SCIENCE).
     S,P,D,F,G SHELL TO TOTAL QUARTET ANGULAR MOMENTUM SUM 5,
        ERIC PROGRAM BY GRAHAM FLETCHER (ELORET AND NASA ADVANCED
        SUPERCOMPUTING DIVISION, AMES RESEARCH CENTER).
     S,P,D,F,G,L SHELL GENERAL RYS QUADRATURE PROGRAMMED BY
        MICHEL DUPUIS (PACIFIC NORTHWEST NATIONAL LABORATORY).

          --------------------
          2 ELECTRON INTEGRALS
          --------------------

 DIRECT SCF METHOD SKIPS INTEGRAL STORAGE ON DISK.
 DIRECT TRANSFORMATION SKIPS AO INTEGRAL STORAGE ON DISK.
  ...... END OF TWO-ELECTRON INTEGRALS .....
 STEP CPU TIME =     0.01 TOTAL CPU TIME =          0.0 (      0.0 MIN)
 TOTAL WALL CLOCK TIME=          0.1 SECONDS, CPU UTILIZATION IS    50.00%

          --------------------------
             R-B3LYP SCF CALCULATION
          --------------------------

     NUCLEAR ENERGY =       102.8023683694
     MAXIT =  200     NPUNCH=    2
     EXTRAP=T  DAMP=F  SHIFT=F  RSTRCT=F  DIIS=T  DEM=F  SOSCF=F
         DENSITY MATRIX CONVERGENCE THRESHOLD=  2.00E-05
     COARSE -> FINE DFT GRID SWITCH THRESHOLD=  3.00E-04 (SWITCH IN $DFT)
                   HF -> DFT SWITCH THRESHOLD=  5.00E-03 (SWOFF IN $DFT)
     MEMORY REQUIRED FOR RHF ITERS=    620217 WORDS.

 DIRECT SCF CALCULATION, SCHWRZ=T   FDIFF=T,  DIRTHR=  0.00E+00 NITDIR=10
 SCHWARZ INEQUALITY OVERHEAD:      2343 INTEGRALS, T=        0.00

 DFT CODE IS SWITCHING FROM THE FINE GRID NRAD= 96,  NLEB=  590
                      TO THE COARSE GRID NRAD0= 24, NLEB0=  110

     EXCHANGE FUNCTIONAL   =B88&HFX   
     CORRELATION FUNCTIONAL=LYP88&VWN5
     DFT THRESHOLD         =.883E-08
     GRID CHANGE THRESHOLD =.300E-03
 FOR AN EULER-MACLAURIN QUADRATURE USING  96 RADIAL POINTS:
 SMALLEST GAUSSIAN PRIMITIVE EXPONENT=        0.1612777588 OF TYPE -S-
 ON ATOM NUMBER   5 HAS RADIAL NORMALIZATION=  1.000000
  LARGEST GAUSSIAN PRIMITIVE EXPONENT=     5484.6716600000 OF TYPE -S-
 ON ATOM NUMBER   4 HAS RADIAL NORMALIZATION=  1.000000
 DFT IS SWITCHED OFF, PERFORMING PURE SCF UNTIL SWOFF THRESHOLD IS REACHED.

                                                                                   NONZERO     BLOCKS
 ITER EX DEM     TOTAL ENERGY        E CHANGE  DENSITY CHANGE    DIIS ERROR      INTEGRALS    SKIPPED
          * * *   INITIATING DIIS PROCEDURE   * * *
   1  0  0     -190.2064963954  -190.2064963954   0.301626594   0.399867124        2561554       4259
   2  1  0     -190.6962401481    -0.4897437527   0.143566103   0.105659342        2561212       4532
   3  2  0     -190.7357148558    -0.0394747077   0.070603251   0.072649387        2557727       4942
   4  3  0     -190.7587758156    -0.0230609598   0.011923248   0.006403413        2550362       5354
   5  4  0     -190.7593307898    -0.0005549741   0.006705504   0.002898446        2533890       5995
   6  5  0     -190.7594159264    -0.0000851366   0.002798211   0.001191453        2515447       6652
 CONVERGED TO SWOFF, SO DFT CALCULATION IS NOW SWITCHED ON.
          * * *   INITIATING DIIS PROCEDURE   * * *
   7  6  0     -191.7804039458    -1.0209880194   0.127119895   0.099808251        2561659       4278
   8  7  0     -191.7979583879    -0.0175544421   0.068038394   0.030190043        2558321       4831
   9  8  0     -191.7928224740     0.0051359139   0.055459569   0.045178436        2551293       5229
  10  9  0     -191.8022086641    -0.0093861901   0.009740274   0.008954803        2546911       5496
  11 10  0     -191.8025359898    -0.0003273257   0.001425302   0.000942073        2523220       6255
  12 11  0     -191.8025377932    -0.0000018034   0.000790701   0.000600335        2472167       7669
  13 12  0     -191.8025401159    -0.0000023226   0.000078218   0.000056259        2423335       8920
 DFT CODE IS SWITCHING BACK TO THE FINE GRID
          * * *   INITIATING DIIS PROCEDURE   * * *
  14 13  0     -191.8004929995     0.0020471163   0.002601323   0.001465967        2561739       4234
  15 14  0     -191.8005019668    -0.0000089673   0.000928889   0.000223026        2507202       6981
  16 15  0     -191.8005013056     0.0000006612   0.000569436   0.000436137        2433796       8877
  17 16  0     -191.8005023268    -0.0000010213   0.000078906   0.000052170        2412814       9390
  18 17  0     -191.8005023338    -0.0000000070   0.000028016   0.000028020        2336564      10929
  19 18  0     -191.8005023369    -0.0000000030   0.000009907   0.000006268        2276025      12184

          -----------------
          DENSITY CONVERGED
          -----------------
     TIME TO FORM FOCK OPERATORS=       8.4 SECONDS (       0.4 SEC/ITER)
     FOCK TIME ON FIRST ITERATION=       0.1, LAST ITERATION=       1.1
     TIME TO SOLVE SCF EQUATIONS=       0.1 SECONDS (       0.0 SEC/ITER)

 FINAL R-B3LYP ENERGY IS     -191.8005023369 AFTER  19 ITERATIONS
 DFT EXCHANGE + CORRELATION ENERGY =       -21.1490953202
 TOTAL ELECTRON NUMBER             =        30.0000002982

          ------------
          EIGENVECTORS
          ------------

                      1          2          3          4          5
                  -19.1432   -10.2737   -10.2160   -10.2065    -1.0352
                     A          A          A          A          A   
    1  C  1  S   -0.000012   0.002075   0.043580   0.991793  -0.020758
    2  C  1  S   -0.000002  -0.000074   0.001666   0.049637   0.037789
    3  C  1  X    0.000017   0.000096  -0.000401   0.000177  -0.021152
    4  C  1  Y    0.000039  -0.000299  -0.000015   0.000175   0.020045
    5  C  1  Z   -0.000016   0.000082   0.000068  -0.000090  -0.003833
    6  C  1  S    0.000714   0.003062   0.003849  -0.015688   0.024572
    7  C  1  X   -0.000536  -0.000333   0.001706  -0.000845  -0.020670
    8  C  1  Y   -0.000108   0.001544  -0.000140  -0.001877   0.005058
    9  C  1  Z    0.000092  -0.000421  -0.000234   0.000764   0.000758
   10  C  1 XX   -0.000085  -0.000340  -0.000712  -0.009104   0.003130
   11  C  1 YY   -0.000004  -0.000408  -0.000643  -0.009421   0.003364
   12  C  1 ZZ   -0.000016  -0.000185  -0.000567  -0.009604  -0.002078
   13  C  1 XY    0.000023   0.000186   0.000013   0.000001  -0.005118
   14  C  1 XZ   -0.000001  -0.000034   0.000024  -0.000098   0.000765
   15  C  1 YZ   -0.000012   0.000064   0.000030  -0.000083  -0.001576
   16  C  2  S    0.000025  -0.000055   0.991736  -0.044059  -0.003925
   17  C  2  S    0.000119  -0.000243   0.049213  -0.002724   0.009884
   18  C  2  X   -0.000066   0.000084  -0.000038   0.000397  -0.006451
   19  C  2  Y    0.000059  -0.000120   0.000033  -0.000011   0.002790
   20  C  2  Z   -0.000004   0.000029  -0.000015  -0.000059   0.000064
   21  C  2  S   -0.000157   0.000018  -0.012725   0.005868   0.010350
   22  C  2  X    0.000362  -0.000475   0.000910  -0.002147   0.001541
   23  C  2  Y   -0.000498   0.000570  -0.000034   0.000721  -0.012203
   24  C  2  Z    0.000105  -0.000131  -0.000117   0.000098   0.003947
   25  C  2 XX    0.000009   0.000091  -0.009237   0.000040   0.000329
   26  C  2 YY    0.000022  -0.000012  -0.009496   0.000220  -0.000009
   27  C  2 ZZ    0.000066  -0.000115  -0.009740   0.000288   0.000126
   28  C  2 XY    0.000024  -0.000002  -0.000011  -0.000032  -0.000190
   29  C  2 XZ    0.000002  -0.000038  -0.000098   0.000059   0.000015
   30  C  2 YZ    0.000013  -0.000047  -0.000110   0.000038   0.000085
   31  C  3  S    0.000013   0.992818  -0.000113  -0.002346  -0.118295
   32  C  3  S    0.000540   0.048735  -0.000186  -0.000381   0.230481
   33  C  3  X   -0.000000  -0.000786  -0.000021  -0.000128  -0.178162
   34  C  3  Y   -0.000045  -0.000068   0.000006   0.000230  -0.007769
   35  C  3  Z    0.000016   0.000097   0.000002  -0.000058   0.020105
   36  C  3  S   -0.003363  -0.008788  -0.000003   0.005141   0.070901
   37  C  3  X    0.003005  -0.003284   0.000616   0.001084   0.031105
   38  C  3  Y    0.000644   0.000333   0.000118  -0.001741   0.017915
   39  C  3  Z   -0.000502   0.000243  -0.000102   0.000397  -0.008583
   40  C  3 XX   -0.000866  -0.008438   0.000001  -0.000206   0.022756
   41  C  3 YY   -0.000027  -0.009460  -0.000002  -0.000411  -0.017629
   42  C  3 ZZ   -0.000022  -0.009687  -0.000057  -0.000158  -0.018667
   43  C  3 XY   -0.000020  -0.000013  -0.000052   0.000163   0.001928
   44  C  3 XZ    0.000104  -0.000144   0.000003  -0.000036  -0.005439
   45  C  3 YZ    0.000008  -0.000088  -0.000015   0.000085  -0.000763
   46  O  4  S    0.992763  -0.000134  -0.000037   0.000025  -0.194560
   47  O  4  S    0.025692   0.000389  -0.000165   0.000072   0.424946
   48  O  4  X    0.001148  -0.000049  -0.000013   0.000025   0.160788
   49  O  4  Y    0.000028   0.000015   0.000007  -0.000015   0.000860
   50  O  4  Z   -0.000123   0.000002  -0.000004   0.000007  -0.016245
   51  O  4  S    0.013747  -0.002803   0.000941  -0.000759   0.399372
   52  O  4  X    0.001614  -0.001942   0.000259  -0.000282   0.056377
   53  O  4  Y   -0.000082  -0.000129  -0.000093   0.000227  -0.002892
   54  O  4  Z   -0.000130   0.000224   0.000010  -0.000051  -0.004627
   55  O  4 XX   -0.007566  -0.000344  -0.000080   0.000095   0.010411
   56  O  4 YY   -0.008102   0.000268  -0.000106   0.000124  -0.010398
   57  O  4 ZZ   -0.008108   0.000386  -0.000116   0.000026  -0.006124
   58  O  4 XY   -0.000015  -0.000019  -0.000033   0.000006   0.000080
   59  O  4 XZ   -0.000058   0.000091   0.000006  -0.000012  -0.001874
   60  O  4 YZ   -0.000003   0.000049  -0.000002  -0.000034   0.001544
   61  H  5  S   -0.000027  -0.000039  -0.000100  -0.000359   0.007808
   62  H  5  S   -0.000312   0.000324   0.000002   0.001678  -0.001585
   63  H  6  S    0.000095  -0.000125  -0.000339  -0.000126   0.003019
   64  H  6  S    0.000042  -0.000066   0.002177  -0.000507   0.003881
   65  H  7  S   -0.000037   0.000046  -0.000338  -0.000017   0.000018
   66  H  7  S   -0.000314   0.000525   0.002131   0.000083  -0.007316
   67  H  8  S   -0.000044  -0.000255  -0.000062  -0.000112   0.028218
   68  H  8  S   -0.000543   0.002441  -0.000201  -0.000105  -0.016774

                      6          7          8          9         10
                   -0.7978    -0.6445    -0.5738    -0.4769    -0.4690
                     A          A          A          A          A   
    1  C  1  S   -0.159791   0.058440  -0.095949  -0.008334   0.031803
    2  C  1  S    0.313027  -0.119477   0.194841   0.015006  -0.069206
    3  C  1  X    0.080875   0.182882  -0.066012   0.135070  -0.267140
    4  C  1  Y    0.028289  -0.106790  -0.165119  -0.215331  -0.081723
    5  C  1  Z   -0.022038   0.005578   0.063170   0.054641   0.068607
    6  C  1  S    0.203596  -0.104998   0.211018   0.011966  -0.024651
    7  C  1  X   -0.001586   0.046213  -0.030494   0.066578  -0.053516
    8  C  1  Y   -0.014509  -0.017424  -0.043741  -0.082459  -0.027914
    9  C  1  Z    0.005072  -0.001835   0.018803   0.019448   0.017792
   10  C  1 XX    0.004356   0.011175  -0.001371  -0.000435   0.001082
   11  C  1 YY   -0.002196  -0.011051  -0.001580   0.001330   0.008999
   12  C  1 ZZ   -0.013458   0.003825  -0.006459  -0.000545   0.001789
   13  C  1 XY    0.001204   0.004380   0.006610   0.001759  -0.006083
   14  C  1 XZ   -0.004082  -0.002493  -0.003287  -0.000774   0.002069
   15  C  1 YZ   -0.005277   0.005364  -0.003618  -0.000719  -0.001913
   16  C  2  S   -0.145257  -0.131662   0.047714   0.008009  -0.006510
   17  C  2  S    0.280695   0.263628  -0.095944  -0.014927   0.015946
   18  C  2  X   -0.099671   0.076167  -0.127255  -0.121813   0.324596
   19  C  2  Y    0.005931  -0.037530  -0.094459  -0.256654  -0.157257
   20  C  2  Z    0.013489  -0.000318   0.051342   0.107111   0.000361
   21  C  2  S    0.219363   0.245609  -0.104062  -0.051201   0.004878
   22  C  2  X   -0.011467   0.035273  -0.037231  -0.034832   0.130590
   23  C  2  Y    0.009437  -0.014033  -0.036667  -0.094596  -0.068081
   24  C  2  Z   -0.001396  -0.001142   0.017842   0.038007   0.001496
   25  C  2 XX    0.008122  -0.004842   0.006122   0.002219  -0.006550
   26  C  2 YY   -0.001463   0.006775  -0.007979  -0.005441   0.014350
   27  C  2 ZZ   -0.013248  -0.009868   0.003299  -0.000342   0.000751
   28  C  2 XY   -0.001267   0.000520   0.002009  -0.006179  -0.005427
   29  C  2 XZ   -0.003862  -0.001546  -0.000827   0.001751   0.002912
   30  C  2 YZ   -0.005142  -0.007425   0.004535   0.003624  -0.004699
   31  C  3  S   -0.051125   0.115477   0.086223  -0.014024  -0.051594
   32  C  3  S    0.101039  -0.244860  -0.182828   0.027867   0.124294
   33  C  3  X    0.118704  -0.165098  -0.094474  -0.030521  -0.128314
   34  C  3  Y   -0.061754   0.054264  -0.197162   0.308773  -0.079297
   35  C  3  Z    0.005645  -0.000753   0.069723  -0.084363   0.043649
   36  C  3  S    0.081798  -0.209688  -0.183129   0.068540   0.105493
   37  C  3  X    0.039934  -0.054302  -0.056624  -0.016775  -0.036701
   38  C  3  Y   -0.010124   0.001527  -0.050730   0.090391  -0.032359
   39  C  3  Z   -0.001603   0.004477   0.021619  -0.022834   0.017226
   40  C  3 XX   -0.004990   0.014513   0.004305   0.000460  -0.010289
   41  C  3 YY    0.008444  -0.009815   0.000756   0.004103  -0.001693
   42  C  3 ZZ   -0.003635   0.006690   0.005849  -0.001228  -0.003812
   43  C  3 XY   -0.006541  -0.000411  -0.008041   0.003968   0.006551
   44  C  3 XZ    0.001871  -0.000665   0.002748  -0.001407  -0.001209
   45  C  3 YZ   -0.003626   0.006307   0.002691  -0.002635  -0.002041
   46  O  4  S    0.039922  -0.067487  -0.035807   0.014839   0.065818
   47  O  4  S   -0.092629   0.154351   0.082490  -0.025593  -0.137639
   48  O  4  X   -0.004810  -0.058845  -0.061867   0.042737   0.262842
   49  O  4  Y   -0.013359   0.019868  -0.087564   0.184311  -0.066505
   50  O  4  Z    0.004249  -0.000420   0.033090  -0.056065  -0.001106
   51  O  4  S   -0.081035   0.187642   0.101289  -0.083938  -0.282264
   52  O  4  X    0.005307  -0.035035  -0.036491   0.010042   0.128984
   53  O  4  Y   -0.002841   0.010628  -0.043849   0.101705  -0.040060
   54  O  4  Z    0.000392   0.000202   0.017045  -0.029763   0.001869
   55  O  4 XX    0.001102  -0.009578  -0.006872   0.003773   0.022727
   56  O  4 YY    0.000108  -0.000827   0.000787   0.003012   0.002761
   57  O  4 ZZ   -0.000599   0.000903   0.000413   0.003354   0.000207
   58  O  4 XY   -0.001320   0.001875  -0.008560   0.015119  -0.005009
   59  O  4 XZ    0.000175   0.000630   0.003522  -0.004396  -0.000683
   60  O  4 YZ   -0.000116   0.000473   0.000892  -0.001660  -0.000461
   61  H  5  S    0.075523  -0.045529   0.170659   0.077615   0.089946
   62  H  5  S    0.002789  -0.009142   0.085160   0.050681   0.070305
   63  H  6  S    0.075165   0.106674  -0.119853  -0.178329   0.028705
   64  H  6  S    0.009820   0.036568  -0.064846  -0.122494   0.023417
   65  H  7  S    0.072088   0.133072  -0.036351   0.081265   0.188635
   66  H  7  S    0.014917   0.047820  -0.019405   0.059180   0.133340
   67  H  8  S    0.033617  -0.103767  -0.180262   0.150411  -0.018943
   68  H  8  S    0.004504  -0.029460  -0.095815   0.106039  -0.021343

                     11         12         13         14         15
                   -0.4138    -0.3931    -0.3914    -0.2877    -0.2530
                     A          A          A          A          A   
    1  C  1  S   -0.002102  -0.013052   0.006093  -0.000448  -0.039646
    2  C  1  S    0.008454   0.022472  -0.009570   0.000232   0.076335
    3  C  1  X    0.227941  -0.046111   0.073142   0.051533  -0.139081
    4  C  1  Y    0.045803  -0.198852   0.166051   0.113043   0.167391
    5  C  1  Z   -0.068475   0.155213   0.104078   0.338550  -0.035206
    6  C  1  S   -0.026992   0.058226  -0.033621   0.005719   0.339451
    7  C  1  X    0.037744  -0.003867   0.020013   0.034979   0.005939
    8  C  1  Y   -0.004132  -0.065517   0.068709   0.075118   0.127461
    9  C  1  Z   -0.014716   0.068929   0.069190   0.228135  -0.041225
   10  C  1 XX    0.009910  -0.002110   0.001954   0.004291  -0.003919
   11  C  1 YY   -0.013423   0.005937   0.000183   0.000349   0.000724
   12  C  1 ZZ   -0.000756  -0.000551  -0.004072  -0.004872  -0.002080
   13  C  1 XY   -0.004787   0.021422  -0.010521   0.005377  -0.005967
   14  C  1 XZ    0.000214  -0.008222   0.001003   0.015473   0.001748
   15  C  1 YZ    0.004997  -0.002406   0.009466  -0.000034  -0.000275
   16  C  2  S   -0.019919   0.006283  -0.006005  -0.000194   0.009448
   17  C  2  S    0.045866  -0.012319   0.012372   0.000766  -0.016075
   18  C  2  X   -0.231115   0.032808  -0.022244   0.057136   0.073130
   19  C  2  Y    0.042303   0.282379  -0.093292   0.118679  -0.016655
   20  C  2  Z    0.013989  -0.054521   0.129979   0.351711  -0.010125
   21  C  2  S    0.072819  -0.030470   0.028125  -0.000347  -0.124927
   22  C  2  X   -0.084922   0.017401  -0.008768   0.043823   0.103283
   23  C  2  Y    0.007679   0.109964  -0.031062   0.085731  -0.006738
   24  C  2  Z    0.006222  -0.014382   0.065811   0.257703  -0.019198
   25  C  2 XX    0.003009  -0.003260  -0.000123  -0.003867   0.000763
   26  C  2 YY   -0.009533   0.001651  -0.001213   0.000206   0.001322
   27  C  2 ZZ   -0.001255   0.003435  -0.000528   0.003750   0.000442
   28  C  2 XY    0.001586   0.022588  -0.012769  -0.004633  -0.007698
   29  C  2 XZ   -0.000470  -0.009887  -0.002235  -0.013828   0.002765
   30  C  2 YZ    0.003148  -0.003622   0.003247   0.000918   0.001074
   31  C  3  S   -0.016842   0.021160  -0.010582   0.000414  -0.001379
   32  C  3  S    0.051775  -0.045176   0.023742  -0.000394   0.014567
   33  C  3  X   -0.308535  -0.118206   0.073422  -0.007610   0.014355
   34  C  3  Y   -0.064392   0.199585   0.010152  -0.016062  -0.129644
   35  C  3  Z    0.021524   0.119473   0.330050  -0.041336   0.037309
   36  C  3  S   -0.006001  -0.076492   0.032606  -0.006394  -0.002746
   37  C  3  X   -0.027591  -0.041479   0.041549   0.000052  -0.065798
   38  C  3  Y   -0.008927   0.082271   0.023664  -0.010022   0.045825
   39  C  3  Z   -0.010658   0.073970   0.183327  -0.028068  -0.005923
   40  C  3 XX    0.011649   0.000676  -0.002263   0.004916   0.001679
   41  C  3 YY   -0.019170  -0.000219  -0.004668  -0.005465  -0.002126
   42  C  3 ZZ   -0.007338   0.002193   0.004639   0.000326  -0.001233
   43  C  3 XY   -0.005754  -0.003286  -0.005738   0.005363  -0.046701
   44  C  3 XZ    0.000633  -0.007884  -0.016073   0.023198   0.013793
   45  C  3 YZ    0.006104  -0.002405  -0.002512  -0.008588   0.005876
   46  O  4  S    0.061042   0.015032  -0.003924  -0.000273   0.000511
   47  O  4  S   -0.121983  -0.027477   0.006662   0.000129   0.006300
   48  O  4  X    0.430600   0.119935   0.018965  -0.020623  -0.035907
   49  O  4  Y   -0.018524   0.187485   0.043568  -0.077942   0.562851
   50  O  4  Z   -0.066464   0.130964   0.394768  -0.268618  -0.162293
   51  O  4  S   -0.267023  -0.083044   0.026336   0.004564  -0.043375
   52  O  4  X    0.231815   0.060382   0.016478  -0.013919  -0.034370
   53  O  4  Y   -0.009039   0.111902   0.028215  -0.055969   0.400357
   54  O  4  Z   -0.037426   0.082002   0.240025  -0.194202  -0.114724
   55  O  4 XX    0.028629   0.008118   0.003328  -0.002179   0.000753
   56  O  4 YY   -0.000154   0.001911  -0.001262  -0.000901   0.002497
   57  O  4 ZZ    0.000372  -0.000792  -0.004925   0.002484   0.003362
   58  O  4 XY   -0.002312   0.012663   0.002860  -0.004034   0.018214
   59  O  4 XZ   -0.004660   0.008865   0.026398  -0.013201  -0.005171
   60  O  4 YZ    0.000288  -0.001829  -0.000168  -0.000464  -0.001786
   61  H  5  S   -0.111865   0.180627  -0.100942  -0.000012  -0.026491
   62  H  5  S   -0.121709   0.154333  -0.087944  -0.001954  -0.069192
   63  H  6  S   -0.037791   0.181694  -0.088727   0.000697  -0.013989
   64  H  6  S   -0.046224   0.171761  -0.086472   0.000076  -0.046349
   65  H  7  S   -0.082296  -0.164180   0.069462  -0.000393   0.042377
   66  H  7  S   -0.084061  -0.147504   0.061030  -0.001317   0.054278
   67  H  8  S   -0.116356   0.026235  -0.024229  -0.004924  -0.167754
   68  H  8  S   -0.129074   0.042391  -0.032923  -0.004265  -0.257376

                     16         17         18         19         20
                   -0.0608     0.0581     0.1100     0.1155     0.1538
                     A          A          A          A          A   
    1  C  1  S    0.000297   0.002821  -0.002202   0.071238   0.013133
    2  C  1  S    0.000570  -0.002030  -0.013016  -0.110382  -0.018979
    3  C  1  X   -0.033682   0.066007  -0.038200   0.114916   0.113849
    4  C  1  Y   -0.064544   0.132790  -0.068365   0.168853  -0.163044
    5  C  1  Z   -0.199641   0.386755   0.039351  -0.089111   0.026502
    6  C  1  S   -0.008551  -0.065752   0.379727  -1.085118  -0.136662
    7  C  1  X   -0.036865   0.109802  -0.323349   0.325877   0.323420
    8  C  1  Y   -0.079928   0.199224  -0.046308   0.261367  -0.528611
    9  C  1  Z   -0.251085   0.617504   0.079728  -0.168360   0.096381
   10  C  1 XX    0.005756  -0.003175   0.003898  -0.006256  -0.014398
   11  C  1 YY   -0.006237  -0.008482  -0.004764   0.013207   0.018195
   12  C  1 ZZ    0.000996   0.012534   0.000207   0.005200  -0.001456
   13  C  1 XY    0.006514  -0.003321  -0.001428   0.022101  -0.019852
   14  C  1 XZ    0.023949  -0.003673  -0.000090  -0.005871   0.008798
   15  C  1 YZ   -0.013200  -0.017248   0.001168  -0.006213  -0.003659
   16  C  2  S    0.001203   0.004568  -0.114980  -0.001172   0.056519
   17  C  2  S   -0.003426  -0.010235   0.182455  -0.002961  -0.086273
   18  C  2  X    0.058599  -0.034728   0.205051  -0.025778  -0.030220
   19  C  2  Y    0.115195  -0.069425   0.002892   0.240695  -0.163592
   20  C  2  Z    0.348745  -0.211687  -0.035875  -0.068766   0.068641
   21  C  2  S   -0.009172  -0.044605   1.804444  -0.041712  -0.881941
   22  C  2  X    0.061417  -0.096265   0.597606  -0.109410   0.020259
   23  C  2  Y    0.139188  -0.131792  -0.028550   0.616785  -0.480800
   24  C  2  Z    0.408858  -0.436581  -0.097577  -0.171146   0.174639
   25  C  2 XX    0.003122  -0.006145  -0.000250  -0.001420   0.004868
   26  C  2 YY   -0.001009  -0.002375  -0.013175   0.004126   0.004487
   27  C  2 ZZ   -0.002103   0.009265  -0.005170  -0.003406   0.002843
   28  C  2 XY    0.002972  -0.009571   0.007581  -0.015576   0.020738
   29  C  2 XZ    0.011182  -0.022594  -0.004152   0.006098  -0.006811
   30  C  2 YZ   -0.002417  -0.003437   0.001272   0.000144  -0.005053
   31  C  3  S    0.000305  -0.001434  -0.043414  -0.033899  -0.108781
   32  C  3  S    0.000139   0.000292   0.080587   0.037284   0.179149
   33  C  3  X   -0.032424  -0.033831   0.048049   0.088618   0.195277
   34  C  3  Y   -0.097107  -0.111107   0.133439   0.151625   0.124927
   35  C  3  Z   -0.323629  -0.387304  -0.061940  -0.036994  -0.045895
   36  C  3  S   -0.004056   0.037363   0.506365   0.630287   1.560827
   37  C  3  X   -0.032830  -0.031119   0.005759   0.291663   0.752616
   38  C  3  Y   -0.090944  -0.168127   0.487631   0.205171   0.243199
   39  C  3  Z   -0.298978  -0.547979  -0.167764  -0.056657  -0.137082
   40  C  3 XX   -0.004852   0.000551  -0.018252   0.016461  -0.013563
   41  C  3 YY    0.004886  -0.013350   0.007443  -0.015965  -0.014200
   42  C  3 ZZ    0.000442   0.012074   0.003766  -0.007423   0.001580
   43  C  3 XY   -0.006963  -0.005686   0.005799  -0.002458   0.004698
   44  C  3 XZ   -0.026334  -0.009279   0.000727  -0.002025   0.000623
   45  C  3 YZ    0.007764  -0.018413  -0.002763   0.004856   0.006226
   46  O  4  S    0.000352  -0.001334   0.014404  -0.006464  -0.004967
   47  O  4  S   -0.001439   0.004457  -0.031721   0.005047  -0.016710
   48  O  4  X    0.031412   0.030088  -0.068191   0.031566  -0.056948
   49  O  4  Y    0.103250   0.064981  -0.049112  -0.031221  -0.044681
   50  O  4  Z    0.332985   0.236528   0.031114  -0.005990   0.015681
   51  O  4  S   -0.001407   0.009676  -0.139560   0.101343   0.214098
   52  O  4  X    0.030148   0.035701  -0.093642   0.035293   0.006944
   53  O  4  Y    0.096903   0.086492  -0.119987  -0.077748  -0.076403
   54  O  4  Z    0.315220   0.300342   0.056851   0.003943   0.017205
   55  O  4 XX    0.000067  -0.000421   0.000969  -0.006436   0.001465
   56  O  4 YY    0.000698  -0.002395   0.002535  -0.004086  -0.016469
   57  O  4 ZZ   -0.001294   0.003594   0.003755  -0.003024  -0.005727
   58  O  4 XY    0.000814  -0.001393  -0.001815   0.004006   0.003033
   59  O  4 XZ    0.002022  -0.004068   0.000486  -0.000586  -0.001289
   60  O  4 YZ    0.001100  -0.003912   0.000454  -0.000026   0.004003
   61  H  5  S    0.003994   0.006851   0.006182   0.112715  -0.018077
   62  H  5  S    0.013063   0.046258  -0.304749   1.327186  -0.280689
   63  H  6  S   -0.002061  -0.000365  -0.043297  -0.044718   0.108844
   64  H  6  S    0.003241   0.023073  -1.194973  -0.768824   1.136324
   65  H  7  S    0.002036   0.005045  -0.083374   0.046501  -0.049207
   66  H  7  S    0.010651   0.052016  -1.272684   0.856624  -0.259560
   67  H  8  S    0.001158  -0.006244   0.009160  -0.054598  -0.088373
   68  H  8  S    0.007307  -0.035379  -0.757174  -0.834944  -1.538200

                     21         22         23         24         25
                    0.1925     0.2635     0.3157     0.3513     0.5083
                     A          A          A          A          A   
    1  C  1  S    0.092730   0.017323  -0.115488   0.026303   0.005481
    2  C  1  S   -0.148163   0.060932   0.143618  -0.092218   0.009138
    3  C  1  X    0.075080  -0.100116   0.196333   0.225805  -0.041385
    4  C  1  Y    0.149461  -0.072256   0.211669  -0.201753  -0.159138
    5  C  1  Z   -0.062828   0.030618  -0.101617   0.029943  -0.413277
    6  C  1  S   -1.588825  -1.257830   3.437521   0.651801  -0.066074
    7  C  1  X    0.367169  -0.468252   1.472333   2.925230  -0.102124
    8  C  1  Y    0.905212  -1.158561   1.262725  -1.230013   0.089940
    9  C  1  Z   -0.350927   0.421251  -0.664212  -0.026942   0.197727
   10  C  1 XX    0.010076  -0.019786  -0.006339  -0.005612   0.002571
   11  C  1 YY    0.003674   0.034153   0.004858   0.015478  -0.011405
   12  C  1 ZZ   -0.001255   0.005926  -0.001798  -0.008299   0.014642
   13  C  1 XY   -0.022014   0.012031   0.013349  -0.032887  -0.012181
   14  C  1 XZ    0.005391   0.000207  -0.003665   0.010055  -0.025673
   15  C  1 YZ    0.002112  -0.011980  -0.004388  -0.005215  -0.016501
   16  C  2  S   -0.050619  -0.019674   0.074728   0.023561  -0.001012
   17  C  2  S    0.077755  -0.043077  -0.030307   0.028311   0.029654
   18  C  2  X    0.033838   0.181206   0.074133   0.113438  -0.149091
   19  C  2  Y   -0.274660  -0.039634  -0.094402   0.170716  -0.200049
   20  C  2  Z    0.085015  -0.024263   0.013241  -0.079095  -0.591751
   21  C  2  S    0.614076   1.180552  -2.328816  -2.135224   0.063991
   22  C  2  X   -0.070427  -0.391870   2.392368   1.836666   0.091576
   23  C  2  Y   -1.169924   0.396345  -0.645637   0.801303   0.183957
   24  C  2  Z    0.398582  -0.052925  -0.156299  -0.565011   0.581999
   25  C  2 XX   -0.012250  -0.001725   0.040100   0.000292   0.010345
   26  C  2 YY    0.004389   0.011686  -0.033697  -0.012011   0.005759
   27  C  2 ZZ   -0.002773  -0.007771   0.002314   0.008236  -0.012277
   28  C  2 XY   -0.003597  -0.017809  -0.020313   0.044044   0.012935
   29  C  2 XZ    0.002947   0.005259   0.000834  -0.013702   0.026517
   30  C  2 YZ   -0.002047  -0.003421   0.020074   0.000079   0.005056
   31  C  3  S   -0.007493   0.030209   0.073356  -0.066352  -0.003267
   32  C  3  S    0.034463   0.004109  -0.026874   0.063507   0.028352
   33  C  3  X    0.047874   0.166466   0.025192   0.062645  -0.059475
   34  C  3  Y   -0.208537  -0.089904   0.172506  -0.441419  -0.191137
   35  C  3  Z    0.057750   0.012593  -0.061833   0.113772  -0.645324
   36  C  3  S   -0.265253  -0.799183  -1.716443   2.045212  -0.088420
   37  C  3  X   -0.208625   2.317988  -0.358315  -0.542668   0.123909
   38  C  3  Y   -0.454795  -0.492116   0.557985  -1.731276   0.211619
   39  C  3  Z    0.164040  -0.088920  -0.093238   0.594399   0.679390
   40  C  3 XX    0.006053   0.015906   0.026134   0.010195  -0.004267
   41  C  3 YY   -0.011527  -0.009393  -0.000231  -0.023922   0.013337
   42  C  3 ZZ    0.002046  -0.017522  -0.011380   0.011985  -0.008800
   43  C  3 XY    0.000014   0.002700  -0.010910   0.007840   0.008508
   44  C  3 XZ   -0.000338  -0.005022  -0.000335  -0.001057   0.004035
   45  C  3 YZ    0.004855  -0.002733  -0.000808   0.014399   0.016297
   46  O  4  S    0.004276  -0.106237  -0.035957   0.033328  -0.001096
   47  O  4  S   -0.009723   0.100992   0.107581   0.043245  -0.009213
   48  O  4  X    0.013512   0.160116   0.133871  -0.040063  -0.013984
   49  O  4  Y    0.100649   0.061286  -0.100250   0.039657   0.005863
   50  O  4  Z   -0.034491  -0.033819   0.018551  -0.004884  -0.031490
   51  O  4  S   -0.092354   2.098505   0.320786  -1.016310   0.069776
   52  O  4  X   -0.019756   0.834703   0.287057  -0.412273   0.017555
   53  O  4  Y    0.139438   0.155986  -0.188138   0.289239  -0.019136
   54  O  4  Z   -0.042064  -0.129496   0.020097  -0.050322  -0.076852
   55  O  4 XX   -0.004233   0.000078   0.010474   0.020186  -0.006570
   56  O  4 YY    0.001616  -0.064986   0.002693   0.027065  -0.004622
   57  O  4 ZZ   -0.000317  -0.062157  -0.002719   0.048528   0.003355
   58  O  4 XY   -0.002788   0.001027   0.005595  -0.007971  -0.014183
   59  O  4 XZ    0.001226  -0.007291  -0.004340   0.004894  -0.042506
   60  O  4 YZ   -0.000734   0.000896  -0.001889   0.009865  -0.000641
   61  H  5  S    0.018447   0.102568   0.036949  -0.031954   0.005497
   62  H  5  S    1.699668  -0.759690   0.853195   0.176542  -0.017031
   63  H  6  S   -0.009655  -0.051361  -0.129623   0.038296   0.006895
   64  H  6  S    0.856386  -0.564667   0.187431  -1.175915   0.009984
   65  H  7  S   -0.030333   0.044109  -0.021967  -0.188843   0.000595
   66  H  7  S   -1.498337  -0.125514  -0.844972   0.308853   0.011105
   67  H  8  S   -0.027180   0.066414   0.046801  -0.043636   0.015102
   68  H  8  S    0.594908  -0.051152   0.170649   1.191806  -0.025160

                     26         27         28         29         30
                    0.5175     0.5582     0.5859     0.6195     0.6362
                     A          A          A          A          A   
    1  C  1  S   -0.072377  -0.003835  -0.001707   0.015595   0.000981
    2  C  1  S   -0.179611  -0.387389  -0.017733   0.363438   0.004162
    3  C  1  X   -0.360162   0.222499   0.022382   0.118362  -0.160835
    4  C  1  Y    0.265912  -0.460227   0.025673  -0.145815  -0.272684
    5  C  1  Z   -0.074424   0.090722   0.115135  -0.010703  -0.908908
    6  C  1  S    0.612055   0.203746  -0.006539  -0.069399  -0.018463
    7  C  1  X    1.282916   0.371847  -0.027205  -0.140477   0.238167
    8  C  1  Y   -0.135878   0.129125  -0.067500   0.588575   0.427782
    9  C  1  Z   -0.131539  -0.062363  -0.231779  -0.126307   1.474634
   10  C  1 XX   -0.128874  -0.071399   0.008446  -0.010206   0.005679
   11  C  1 YY   -0.014919  -0.041281  -0.005202   0.135021  -0.020346
   12  C  1 ZZ    0.045129   0.014281  -0.009720  -0.024368   0.016220
   13  C  1 XY    0.010244   0.055747   0.017174   0.003357  -0.004631
   14  C  1 XZ    0.026513  -0.004940   0.047301  -0.007569   0.000648
   15  C  1 YZ    0.023819   0.013348  -0.002826  -0.069605  -0.023452
   16  C  2  S    0.009774   0.005753   0.000231   0.034866  -0.002690
   17  C  2  S   -0.362406  -0.261208  -0.009270   0.361481  -0.007331
   18  C  2  X    0.603718   0.099340   0.113191   0.186908   0.047054
   19  C  2  Y    0.033835  -0.285358   0.224652  -0.116963   0.151413
   20  C  2  Z   -0.162109   0.071408   0.676276   0.036158   0.426565
   21  C  2  S   -0.625335   0.089518   0.002649  -0.834186   0.046311
   22  C  2  X   -0.453694   0.367605  -0.124749  -0.611222  -0.086327
   23  C  2  Y   -0.171566   0.740539  -0.243128   0.225071  -0.289652
   24  C  2  Z    0.183139  -0.305627  -0.714025  -0.016552  -0.838410
   25  C  2 XX   -0.042003   0.006235  -0.007112   0.060442   0.003788
   26  C  2 YY   -0.001543  -0.037304   0.008020   0.088062  -0.011981
   27  C  2 ZZ   -0.002207  -0.006542  -0.001517  -0.038886   0.003189
   28  C  2 XY    0.000882  -0.053473  -0.004811  -0.032891   0.006020
   29  C  2 XZ    0.010576   0.019340  -0.026747  -0.008741   0.028077
   30  C  2 YZ    0.000858   0.024151   0.015159  -0.049308  -0.010913
   31  C  3  S    0.031767  -0.045882   0.000397  -0.004079  -0.000303
   32  C  3  S   -0.324393  -0.477885  -0.023999   0.047810   0.017803
   33  C  3  X   -0.144459  -0.245259  -0.073777   0.230771  -0.012449
   34  C  3  Y    0.145670   0.181617  -0.188371  -0.409133   0.063761
   35  C  3  Z   -0.074295  -0.011852  -0.702505   0.086506   0.215332
   36  C  3  S    0.977097   1.296670   0.016626  -0.088464   0.023111
   37  C  3  X   -0.657324   0.101295   0.125414  -0.579447  -0.037921
   38  C  3  Y   -0.021694  -0.689272   0.243565   1.138510  -0.217574
   39  C  3  Z    0.145768   0.176262   0.989192  -0.261722  -0.639584
   40  C  3 XX    0.034525  -0.023182   0.000040   0.055730  -0.012732
   41  C  3 YY   -0.019856  -0.138894   0.006398  -0.057599   0.007855
   42  C  3 ZZ   -0.020876   0.026863  -0.011572   0.004035   0.006678
   43  C  3 XY   -0.057102   0.019804   0.005532  -0.022652  -0.007499
   44  C  3 XZ    0.011623  -0.000023   0.007068  -0.000621  -0.025343
   45  C  3 YZ    0.011953   0.061223   0.019149   0.028567  -0.004455
   46  O  4  S    0.018190   0.025584  -0.000667   0.002478   0.000931
   47  O  4  S    0.063069  -0.123881   0.002943   0.002290   0.014470
   48  O  4  X    0.089992  -0.001548  -0.006818   0.091605  -0.018200
   49  O  4  Y   -0.185367   0.042743  -0.020737  -0.223202  -0.017684
   50  O  4  Z    0.043785  -0.013668  -0.100022   0.047660  -0.029088
   51  O  4  S   -0.790140  -0.290909   0.009942  -0.276007  -0.021934
   52  O  4  X   -0.309858  -0.292538  -0.003620  -0.080021   0.008630
   53  O  4  Y   -0.047933   0.121608  -0.019511  -0.087961   0.044026
   54  O  4  Z    0.032720  -0.005317  -0.087429   0.036208   0.129236
   55  O  4 XX   -0.006422  -0.028726  -0.007830  -0.040857   0.017218
   56  O  4 YY    0.032594  -0.026460   0.003065   0.004481  -0.009283
   57  O  4 ZZ    0.045337   0.003689   0.006445   0.015132   0.011205
   58  O  4 XY    0.026891   0.011864  -0.012599  -0.010089   0.005396
   59  O  4 XZ   -0.005009   0.002023  -0.046022   0.009527   0.021644
   60  O  4 YZ    0.002580   0.010033   0.005996   0.005064  -0.021608
   61  H  5  S   -0.195078   0.118556  -0.014454   0.445009  -0.006648
   62  H  5  S    0.215486  -0.070397   0.001178   0.046396  -0.008658
   63  H  6  S    0.074260  -0.371760   0.003447   0.224965  -0.017820
   64  H  6  S    0.199066  -0.363391   0.003555   0.157566  -0.008474
   65  H  7  S   -0.028229   0.139591  -0.001922   0.445259  -0.022494
   66  H  7  S   -0.081800   0.063994   0.002373   0.241561  -0.021638
   67  H  8  S   -0.213126  -0.346995   0.001184  -0.330188   0.018313
   68  H  8  S    0.132018   0.211015   0.014011  -0.238916  -0.006071

                     31         32         33         34         35
                    0.6624     0.6772     0.8106     0.8273     0.8560
                     A          A          A          A          A   
    1  C  1  S    0.052502   0.018034  -0.025615   0.012995   0.002687
    2  C  1  S   -0.158968  -0.374852  -0.512962   0.243970  -0.005651
    3  C  1  X   -0.563717  -0.123203   0.406346  -0.128181  -0.007615
    4  C  1  Y    0.108771  -0.209211   0.042013   0.306951   0.096096
    5  C  1  Z    0.089626   0.060009  -0.069232  -0.081647  -0.027582
    6  C  1  S    0.474981   0.838224   1.444889  -0.827980   0.170217
    7  C  1  X    0.467368  -0.538235  -2.340843   0.558074   0.082470
    8  C  1  Y    0.133692   0.713077   0.167458  -1.732045  -0.455649
    9  C  1  Z   -0.194509  -0.106774   0.263180   0.490375   0.137296
   10  C  1 XX    0.094337  -0.012848  -0.052158   0.033532   0.020347
   11  C  1 YY    0.019022   0.012392  -0.053662  -0.004455  -0.012299
   12  C  1 ZZ   -0.045368  -0.026829   0.003224  -0.002806  -0.003956
   13  C  1 XY    0.007861  -0.019659  -0.057380  -0.045553  -0.051421
   14  C  1 XZ   -0.029622   0.001783   0.032408   0.008679   0.013125
   15  C  1 YZ   -0.029597  -0.010673   0.036659   0.008434   0.015044
   16  C  2  S   -0.070193  -0.045460   0.020442  -0.002852  -0.001679
   17  C  2  S   -0.186093  -0.261449  -0.471785  -0.000023   0.243747
   18  C  2  X   -0.406080  -0.163609   0.048951  -0.051659   0.007798
   19  C  2  Y   -0.020390  -0.011407  -0.098426  -0.939144  -0.412153
   20  C  2  Z    0.063873   0.034930   0.019464   0.321268   0.137643
   21  C  2  S    0.522864   0.921446   1.858863   0.002872  -0.462446
   22  C  2  X    0.566860  -0.096617  -0.571726   0.064589   0.089454
   23  C  2  Y   -0.001932  -0.153992  -0.007724   2.586795   1.007296
   24  C  2  Z   -0.065112   0.050542   0.114526  -0.873397  -0.352933
   25  C  2 XX   -0.142732  -0.073009   0.013910  -0.014993   0.012052
   26  C  2 YY   -0.044987  -0.055860  -0.024268   0.004094   0.009141
   27  C  2 ZZ    0.056501   0.033884  -0.032554   0.000409   0.018494
   28  C  2 XY   -0.033719   0.049968   0.014198   0.077081   0.072112
   29  C  2 XZ    0.050814   0.006440  -0.012742  -0.024020  -0.024412
   30  C  2 YZ    0.055291   0.029553  -0.006516  -0.017297  -0.009081
   31  C  3  S   -0.021227   0.053224   0.000891   0.034713  -0.044256
   32  C  3  S    0.280842  -0.427710  -0.467265  -0.196065   0.100113
   33  C  3  X   -0.251676   0.894637  -0.231954  -0.183876   0.242041
   34  C  3  Y   -0.298285  -0.132100  -0.686875  -0.027006   0.292151
   35  C  3  Z    0.085453  -0.047044   0.225466   0.023296  -0.107641
   36  C  3  S   -0.064986  -0.629397  -0.332606   1.946005  -0.725124
   37  C  3  X    0.134505  -0.908746   1.093346   0.144118  -0.000711
   38  C  3  Y    0.925571   0.756478   2.738616  -0.526653  -0.429663
   39  C  3  Z   -0.222889  -0.150764  -0.931802   0.144878   0.122090
   40  C  3 XX   -0.054331   0.119460  -0.151740   0.122683  -0.167766
   41  C  3 YY    0.049288  -0.083329   0.010632   0.015895   0.002829
   42  C  3 ZZ    0.019799  -0.050224  -0.010869  -0.069126   0.081352
   43  C  3 XY   -0.016499   0.031110   0.069684  -0.018263  -0.082613
   44  C  3 XZ    0.014187  -0.029063  -0.004441  -0.020169   0.054791
   45  C  3 YZ   -0.008411   0.005946  -0.017623  -0.030566   0.038419
   46  O  4  S    0.011491  -0.043523  -0.013043   0.008511  -0.003970
   47  O  4  S   -0.001123   0.128525   0.141751  -0.178070   0.384065
   48  O  4  X   -0.151271   0.352871  -0.269358   0.283486  -0.512793
   49  O  4  Y   -0.208946  -0.011424  -0.023643   0.006188  -0.060716
   50  O  4  Z    0.072189  -0.032530   0.038372  -0.039454   0.074112
   51  O  4  S    0.004766  -0.076518   0.557862  -0.144393  -0.342505
   52  O  4  X   -0.027156   0.312420   0.601418  -0.636921   0.907749
   53  O  4  Y   -0.080047  -0.082651  -0.288541   0.034487   0.036681
   54  O  4  Z    0.019542  -0.002443   0.023726   0.060311  -0.105971
   55  O  4 XX    0.080328  -0.157511   0.122479  -0.119953   0.200443
   56  O  4 YY   -0.012532   0.056160   0.064363  -0.061150   0.134226
   57  O  4 ZZ   -0.011294   0.044995   0.013539  -0.049905   0.132470
   58  O  4 XY   -0.002865  -0.019758  -0.081456   0.004090   0.050349
   59  O  4 XZ   -0.012018   0.029687   0.011285   0.007575  -0.022890
   60  O  4 YZ    0.002244  -0.002159  -0.010786   0.003724  -0.007236
   61  H  5  S    0.333526  -0.053265  -0.176477   0.002874  -0.102132
   62  H  5  S    0.025641  -0.018551  -0.594161  -0.465299  -0.092607
   63  H  6  S   -0.449638  -0.130353   0.181637   0.348368   0.219748
   64  H  6  S    0.042319   0.021495  -0.178598  -1.785355  -0.802462
   65  H  7  S   -0.247936  -0.308460   0.025730  -0.335494  -0.299515
   66  H  7  S   -0.221620   0.080229  -0.095246   1.610670   0.911583
   67  H  8  S   -0.151712  -0.037448   0.344000   0.211808  -0.581936
   68  H  8  S   -0.454325  -0.163215  -2.199052  -0.277226   0.974707

                     36         37         38         39         40
                    0.8722     0.9061     0.9492     0.9873     1.0584
                     A          A          A          A          A   
    1  C  1  S   -0.036169   0.012492  -0.013902   0.001760  -0.029875
    2  C  1  S    0.524798  -0.072592  -0.403597   0.050780  -0.842586
    3  C  1  X   -0.387525  -0.484691   0.230999   0.001187   0.002142
    4  C  1  Y   -0.826622   0.074176  -0.038974   0.029294   0.003496
    5  C  1  Z    0.332079   0.051164  -0.029230   0.036608   0.007632
    6  C  1  S   -0.275259   0.132876   1.033215  -0.192063   2.470885
    7  C  1  X    0.817357   2.521963  -1.561767   0.109933   0.692659
    8  C  1  Y    2.628311  -0.849323   0.732111  -0.116394  -0.042129
    9  C  1  Z   -0.994554  -0.105729   0.010440   0.093056  -0.095714
   10  C  1 XX    0.071920   0.076193  -0.081991  -0.003889  -0.022288
   11  C  1 YY   -0.028934  -0.065342   0.044881  -0.014829  -0.117689
   12  C  1 ZZ    0.056467  -0.005590  -0.003700   0.027069   0.020127
   13  C  1 XY   -0.114723   0.046625  -0.041204  -0.010224   0.003469
   14  C  1 XZ    0.040132  -0.030385   0.030152  -0.019708   0.005891
   15  C  1 YZ    0.058585   0.014670  -0.006845  -0.034890   0.056402
   16  C  2  S    0.005282   0.029906   0.001949   0.000474   0.015319
   17  C  2  S   -0.007114  -0.149252  -1.288506  -0.083875   0.609277
   18  C  2  X    0.026802  -0.705248  -0.215049  -0.018708  -0.067108
   19  C  2  Y   -0.059699   0.088890  -0.035413  -0.019873  -0.076760
   20  C  2  Z    0.015779   0.083870   0.054206  -0.059055   0.034092
   21  C  2  S   -0.643976  -0.971198   3.393642   0.158107  -2.312740
   22  C  2  X    0.215833   2.005785  -0.108866   0.043226   0.701047
   23  C  2  Y   -0.514184   0.053270  -0.092249   0.110867   0.355366
   24  C  2  Z    0.135029  -0.340226   0.031183   0.050426  -0.222841
   25  C  2 XX   -0.041624  -0.104575  -0.092102  -0.000448   0.002180
   26  C  2 YY    0.011382   0.145421  -0.027002  -0.015877   0.053403
   27  C  2 ZZ    0.013822  -0.072727  -0.059391   0.004103   0.029743
   28  C  2 XY    0.070944  -0.038785   0.037529  -0.007991  -0.012780
   29  C  2 XZ   -0.014869   0.013636  -0.009349   0.013825   0.010592
   30  C  2 YZ   -0.012925  -0.087575  -0.019194  -0.024768  -0.009140
   31  C  3  S    0.015389  -0.017708   0.016349  -0.001868   0.012081
   32  C  3  S    0.315030  -0.849769   1.150957  -0.031677   0.398375
   33  C  3  X   -0.054647  -0.035066   0.124353   0.026401   0.067724
   34  C  3  Y   -0.119255   0.164425   0.059686   0.037259   0.191657
   35  C  3  Z    0.047304  -0.041535  -0.028069   0.096247  -0.057317
   36  C  3  S   -1.602996   2.724080  -3.326553   0.186724  -1.179482
   37  C  3  X   -0.636337   0.149433  -0.390621  -0.090795  -0.362505
   38  C  3  Y    0.697399  -1.489891   0.712442  -0.295864  -0.991325
   39  C  3  Z   -0.131673   0.443786  -0.182962  -0.500143   0.308392
   40  C  3 XX   -0.032193  -0.064766   0.102005  -0.002406   0.017859
   41  C  3 YY    0.052870  -0.047698   0.020200  -0.006517   0.013999
   42  C  3 ZZ    0.003733  -0.003192   0.022696   0.007204   0.017371
   43  C  3 XY    0.047468  -0.000907  -0.040031   0.000544   0.148931
   44  C  3 XZ   -0.008248   0.010167   0.001988   0.023418  -0.040091
   45  C  3 YZ   -0.025369   0.019922   0.005088  -0.022786  -0.016718
   46  O  4  S   -0.000214   0.001892  -0.001991   0.001039  -0.000174
   47  O  4  S    0.051155   0.207498  -0.166213   0.012772   0.021780
   48  O  4  X   -0.014284   0.008131   0.058450  -0.112398   0.093381
   49  O  4  Y   -0.034748  -0.001961   0.009102  -0.249196  -0.691935
   50  O  4  Z    0.003399   0.033648   0.001305  -0.901376   0.163247
   51  O  4  S   -0.069404  -0.767054   0.685822  -0.078553   0.002634
   52  O  4  X    0.041862  -0.048660  -0.048899   0.143045  -0.124223
   53  O  4  Y   -0.089026   0.173937  -0.120604   0.354210   1.153980
   54  O  4  Z    0.029666  -0.086699   0.030370   1.200419  -0.281194
   55  O  4 XX    0.049311   0.028195  -0.013835  -0.003721   0.026464
   56  O  4 YY    0.008346   0.040898  -0.037688   0.001610   0.001030
   57  O  4 ZZ   -0.015533   0.120525  -0.119349   0.019692  -0.026541
   58  O  4 XY    0.000988   0.021339   0.009070  -0.008018  -0.094180
   59  O  4 XZ   -0.008078   0.005079  -0.015183  -0.028767   0.018766
   60  O  4 YZ   -0.009297   0.029967  -0.033431  -0.003218   0.002082
   61  H  5  S   -0.663646  -0.026523   0.003446   0.007702  -0.160545
   62  H  5  S    2.564568   0.350737  -0.299031  -0.020386  -0.162078
   63  H  6  S    0.108821   0.498938   0.404332  -0.005422   0.025876
   64  H  6  S    0.060672  -1.042944  -1.054838  -0.091859   0.007801
   65  H  7  S   -0.000024   0.599189   0.252328   0.042291   0.112771
   66  H  7  S   -0.069060  -1.169064  -0.830874  -0.053899   0.344160
   67  H  8  S    0.114737   0.006543  -0.310630   0.019947   0.122793
   68  H  8  S   -0.163486   0.332085   0.826929   0.042446   0.767164

                     41         42         43         44         45
                    1.0895     1.1501     1.2626     1.3360     1.4381
                     A          A          A          A          A   
    1  C  1  S   -0.001418  -0.044994  -0.031727   0.007703  -0.001841
    2  C  1  S    0.121547  -1.286245  -0.766371   0.163726  -0.035872
    3  C  1  X   -0.111790  -0.209970  -0.150270   0.040005  -0.031459
    4  C  1  Y    0.090415   0.017261  -0.314460   0.058690  -0.054770
    5  C  1  Z   -0.018635   0.019892   0.120519  -0.044464  -0.147352
    6  C  1  S   -0.129019   5.807587   3.214151  -0.747027   0.173874
    7  C  1  X    2.180518   1.016447   2.170706  -0.672220   0.042593
    8  C  1  Y   -1.159421  -0.015230   3.687975  -0.780570   0.125467
    9  C  1  Z    0.088040  -0.147303  -1.504425   0.395188   0.046563
   10  C  1 XX   -0.006842  -0.016294  -0.060140   0.121376   0.102973
   11  C  1 YY    0.031786  -0.086078  -0.031885  -0.183480   0.218224
   12  C  1 ZZ    0.011434  -0.013529   0.075827   0.059284  -0.321317
   13  C  1 XY   -0.015777  -0.052426   0.114998   0.056546   0.171891
   14  C  1 XZ    0.024933   0.023297   0.066132   0.392152   0.321854
   15  C  1 YZ   -0.029897   0.044710  -0.073463  -0.305017   0.325990
   16  C  2  S    0.003983   0.025188   0.014376  -0.004485   0.001846
   17  C  2  S   -0.370020   1.032154   0.203591  -0.030712   0.022236
   18  C  2  X    0.217247  -0.092573   0.162817  -0.069220  -0.012264
   19  C  2  Y   -0.291305  -0.100515  -0.084922  -0.003876  -0.023930
   20  C  2  Z    0.061752   0.048484  -0.021750  -0.109028  -0.093114
   21  C  2  S   -0.931581  -4.169622  -3.163342   0.840562  -0.120207
   22  C  2  X    0.200736   1.257803   0.848920  -0.234960   0.071071
   23  C  2  Y    2.094804   0.852263  -1.802517   0.302971  -0.100445
   24  C  2  Z   -0.752782  -0.484864   0.451638  -0.064155   0.018066
   25  C  2 XX   -0.049003  -0.040624  -0.117625  -0.055658  -0.104772
   26  C  2 YY   -0.005771   0.114575   0.016584  -0.079474   0.128835
   27  C  2 ZZ    0.001654   0.038387   0.126266   0.130134  -0.022691
   28  C  2 XY   -0.141569  -0.058389   0.061414  -0.129696  -0.090728
   29  C  2 XZ    0.046582   0.032638  -0.044520  -0.295045  -0.389613
   30  C  2 YZ    0.027995  -0.018951  -0.017235  -0.098587   0.206493
   31  C  3  S   -0.002472   0.024864   0.027447  -0.006277  -0.002718
   32  C  3  S    0.255077   0.537695   0.307394  -0.090246  -0.016832
   33  C  3  X    0.339748   0.090075  -0.094185   0.013396   0.007935
   34  C  3  Y    0.044595  -0.207036   0.135044  -0.022758   0.033053
   35  C  3  Z   -0.062859   0.056713  -0.009579   0.035692   0.104472
   36  C  3  S    0.430614  -1.423578  -2.179721   0.477737  -0.304101
   37  C  3  X   -1.417733  -0.658359  -2.507205   0.683537   0.161892
   38  C  3  Y   -1.619589   1.618624  -0.218313   0.181856   0.004941
   39  C  3  Z    0.701223  -0.423734   0.353177  -0.071860  -0.206023
   40  C  3 XX   -0.067525   0.041038   0.009724  -0.039565   0.050951
   41  C  3 YY    0.175543   0.003988   0.009510   0.233773   0.012346
   42  C  3 ZZ   -0.035425  -0.011069   0.000020  -0.202558  -0.066963
   43  C  3 XY    0.034435  -0.043293   0.084720  -0.032387   0.110846
   44  C  3 XZ   -0.023856   0.014971  -0.054411  -0.210358   0.360537
   45  C  3 YZ   -0.057216   0.002608   0.127996   0.392378  -0.025791
   46  O  4  S    0.007714   0.002232   0.038994  -0.009956  -0.009466
   47  O  4  S   -0.127621   0.145733   0.361468  -0.064112  -0.162900
   48  O  4  X   -0.301353   0.110420  -0.120385   0.042171  -0.029729
   49  O  4  Y    0.068383   0.414556   0.152017  -0.049603   0.005100
   50  O  4  Z    0.057960  -0.153558  -0.046787  -0.031620   0.021806
   51  O  4  S   -0.542168  -0.238197  -1.796340   0.443004   0.503936
   52  O  4  X    0.397886  -0.156868  -0.233925   0.031216   0.187758
   53  O  4  Y    0.163296  -0.931010  -0.160595   0.010275   0.042974
   54  O  4  Z   -0.176023   0.324268   0.063667  -0.068799   0.152304
   55  O  4 XX   -0.070120   0.065080   0.155261  -0.006270  -0.095986
   56  O  4 YY   -0.007077   0.042039   0.086832   0.067837  -0.033146
   57  O  4 ZZ    0.040408  -0.017553   0.133697  -0.138308   0.003785
   58  O  4 XY   -0.021097   0.066158  -0.004126   0.050365  -0.073197
   59  O  4 XZ    0.029099  -0.035056   0.019855   0.103428  -0.238164
   60  O  4 YZ    0.028063  -0.026764   0.067181   0.111245  -0.005430
   61  H  5  S    0.042731  -0.320284   0.800257  -0.187916   0.019272
   62  H  5  S    0.029512  -0.476235   1.393338  -0.346954   0.024014
   63  H  6  S   -0.394321  -0.139325   0.551683  -0.110182   0.022011
   64  H  6  S   -0.732473   0.105401   0.775781  -0.138050   0.021803
   65  H  7  S    0.518107   0.309097  -0.351548   0.050644  -0.018728
   66  H  7  S    0.611345   0.624300  -0.224071   0.020783  -0.036456
   67  H  8  S    0.573189  -0.111632   0.534519  -0.161091  -0.002756
   68  H  8  S    0.743190  -0.336215   0.762658  -0.241738  -0.026210

                     46         47         48         49         50
                    1.5450     1.5458     1.6564     1.7667     1.7937
                     A          A          A          A          A   
    1  C  1  S   -0.023472  -0.006422   0.000983  -0.000112  -0.019418
    2  C  1  S   -0.561620  -0.171540   0.018643   0.136878   0.224962
    3  C  1  X   -0.070296  -0.006823   0.009344  -0.027852  -0.231118
    4  C  1  Y   -0.113055  -0.020941   0.012901   0.156546   0.140231
    5  C  1  Z    0.044210   0.048229   0.027213  -0.047280  -0.010230
    6  C  1  S    2.300004   0.672630  -0.090311   0.160076   0.460105
    7  C  1  X   -0.045610  -0.147972  -0.033605  -1.462857   0.326117
    8  C  1  Y    1.027756   0.288366   0.029536  -0.127029  -0.073065
    9  C  1  Z   -0.387206   0.010483   0.210399   0.249971  -0.022401
   10  C  1 XX    0.067284  -0.016863  -0.037991  -0.014131   0.113493
   11  C  1 YY    0.050055  -0.095819   0.002057  -0.216731  -0.160154
   12  C  1 ZZ   -0.129774   0.104660   0.035041   0.300458   0.039550
   13  C  1 XY   -0.025787  -0.106583  -0.042680   0.135243   0.318531
   14  C  1 XZ    0.005311  -0.135832  -0.116007   0.023473  -0.123906
   15  C  1 YZ   -0.013166  -0.171948   0.001362   0.199816   0.026225
   16  C  2  S    0.014500   0.004477  -0.000758   0.007352   0.002538
   17  C  2  S    0.320678   0.100842  -0.006522   0.066406  -0.025753
   18  C  2  X   -0.047165  -0.012497  -0.000711  -0.088267   0.076151
   19  C  2  Y    0.110723   0.068275   0.013839  -0.006085  -0.112222
   20  C  2  Z   -0.041246   0.054696   0.033077   0.018468   0.029239
   21  C  2  S   -1.177110  -0.241263   0.088896   0.841078  -0.309732
   22  C  2  X    0.834072   0.232835  -0.049941  -0.422887   0.132885
   23  C  2  Y   -1.149879  -0.402426  -0.015266  -0.202982  -0.164779
   24  C  2  Z    0.270902   0.010533  -0.081343   0.135731   0.025523
   25  C  2 XX    0.002939   0.076571   0.036776   0.015063   0.104771
   26  C  2 YY    0.138762  -0.101865   0.432407  -0.166290  -0.071791
   27  C  2 ZZ   -0.141226   0.026478  -0.468062   0.167159  -0.077700
   28  C  2 XY    0.047397   0.063265   0.171507  -0.031791  -0.229405
   29  C  2 XZ   -0.099374   0.228527   0.094263   0.047215   0.065096
   30  C  2 YZ   -0.025732  -0.259901   0.656077   0.133694   0.038708
   31  C  3  S   -0.016290  -0.007392   0.000395   0.014408  -0.016770
   32  C  3  S   -0.096583  -0.052270  -0.005785   0.385011   0.171294
   33  C  3  X   -0.061953  -0.003402   0.002384   0.122468   0.111464
   34  C  3  Y   -0.025066   0.033560   0.010957  -0.263403   0.015293
   35  C  3  Z   -0.051069   0.142958   0.031596   0.063477  -0.015724
   36  C  3  S   -3.351522  -1.247330   0.062800  -2.420224  -0.192393
   37  C  3  X    1.977646   0.895133  -0.031212   1.446328   0.158379
   38  C  3  Y    0.833238   0.300821  -0.061462   1.239955   0.787254
   39  C  3  Z   -0.409074  -0.281251  -0.178287  -0.534936  -0.250072
   40  C  3 XX   -0.167423   0.008413  -0.013635  -0.109431  -0.002174
   41  C  3 YY    0.098506   0.247859   0.152003  -0.226775   0.049068
   42  C  3 ZZ    0.030713  -0.272660  -0.137884   0.398471  -0.014317
   43  C  3 XY   -0.120692   0.122393   0.003771   0.053940   0.453259
   44  C  3 XZ   -0.172021   0.391773  -0.090801   0.039525  -0.141095
   45  C  3 YZ   -0.194745   0.263183   0.279490   0.246422  -0.077046
   46  O  4  S   -0.087612  -0.036454   0.001201  -0.045521  -0.007269
   47  O  4  S   -1.524641  -0.622365   0.024499  -0.793534  -0.160568
   48  O  4  X   -0.240215  -0.077937   0.001258  -0.037189  -0.049404
   49  O  4  Y   -0.026945   0.015327  -0.013650   0.026497   0.242349
   50  O  4  Z   -0.021618   0.101319  -0.040313  -0.009596  -0.067413
   51  O  4  S    4.962153   2.059546  -0.070946   2.978480   0.477875
   52  O  4  X    1.620392   0.665612  -0.018437   0.896368   0.177201
   53  O  4  Y   -0.118190  -0.018828   0.027105  -0.197065  -0.420234
   54  O  4  Z   -0.146003   0.003348   0.075086  -0.021291   0.107638
   55  O  4 XX   -0.480124  -0.272709   0.012788  -0.253669  -0.008439
   56  O  4 YY   -0.182631   0.046032   0.157011  -0.528759   0.160094
   57  O  4 ZZ   -0.425378  -0.218362  -0.153793   0.306519  -0.252150
   58  O  4 XY    0.112154  -0.057086   0.035763   0.088822  -0.476685
   59  O  4 XZ    0.159261  -0.373020   0.016694   0.060941   0.111735
   60  O  4 YZ   -0.182340   0.139186   0.274975   0.339885  -0.081339
   61  H  5  S    0.041185   0.001063  -0.007989  -0.128054  -0.145807
   62  H  5  S    0.133276  -0.009448  -0.016467  -0.310254   0.088757
   63  H  6  S    0.187650   0.049472  -0.007095   0.199079   0.271693
   64  H  6  S    0.281393   0.074415  -0.001899   0.053162  -0.053695
   65  H  7  S   -0.200538  -0.068168   0.002910   0.008552  -0.193203
   66  H  7  S   -0.481632  -0.171313   0.001643  -0.026469  -0.031713
   67  H  8  S   -0.057588  -0.041289   0.002222   0.026317  -0.554035
   68  H  8  S   -0.311437  -0.156520  -0.006215  -0.469716  -0.133668

                     51         52         53         54         55
                    1.8438     1.9087     1.9869     2.0493     2.1391
                     A          A          A          A          A   
    1  C  1  S   -0.000665   0.025031  -0.034380  -0.003229  -0.000613
    2  C  1  S   -0.007257   0.183370  -0.461793  -0.328448  -0.076921
    3  C  1  X   -0.006075   0.017599  -0.072237  -0.131598  -0.026827
    4  C  1  Y   -0.026692   0.127053   0.039364  -0.198796  -0.007095
    5  C  1  Z   -0.053753  -0.046386   0.001558   0.081546   0.087383
    6  C  1  S   -0.001060  -0.799801   1.634748  -0.325831   0.013828
    7  C  1  X    0.068192   0.825579   0.033914   0.912239   0.251162
    8  C  1  Y    0.045365  -0.211053   1.086784  -0.085897  -0.024500
    9  C  1  Z    0.128308  -0.060789  -0.373387  -0.141465   0.372644
   10  C  1 XX   -0.016336   0.088209   0.360265   0.425865   0.074836
   11  C  1 YY    0.254332  -0.403797  -0.171276  -0.392030   0.313336
   12  C  1 ZZ   -0.240974   0.301691  -0.258648  -0.176274  -0.413308
   13  C  1 XY    0.040927  -0.314425  -0.310169   0.219817   0.166492
   14  C  1 XZ   -0.084080   0.163795  -0.002319  -0.204752   0.108976
   15  C  1 YZ    0.349505   0.370693  -0.001784  -0.024711   0.432304
   16  C  2  S   -0.000880   0.023919  -0.017311  -0.014802   0.006667
   17  C  2  S   -0.008724   0.067092  -0.208234  -0.315368   0.056934
   18  C  2  X    0.006290   0.003365   0.238558   0.236829  -0.024415
   19  C  2  Y    0.000990   0.114705   0.109877  -0.096347  -0.004313
   20  C  2  Z    0.008933  -0.038297  -0.074245  -0.004900  -0.018055
   21  C  2  S   -0.011862  -0.746083  -0.158019  -0.126228  -0.287066
   22  C  2  X    0.003496   0.018189   0.037265  -0.254706  -0.025439
   23  C  2  Y    0.010761   0.231322  -0.368302  -0.036471  -0.020310
   24  C  2  Z   -0.049942  -0.078293   0.114238   0.070985  -0.203078
   25  C  2 XX   -0.002000  -0.006952   0.170994   0.454611   0.193631
   26  C  2 YY   -0.156138  -0.343116   0.029218  -0.410818  -0.289050
   27  C  2 ZZ    0.157073   0.365086  -0.328350  -0.201244   0.081321
   28  C  2 XY   -0.047743   0.319040   0.264347  -0.333672   0.138101
   29  C  2 XZ    0.014435  -0.031161  -0.183299  -0.042557   0.446809
   30  C  2 YZ   -0.265744   0.242610  -0.209176   0.175084  -0.025299
[...]

          ATOMIC WEIGHTS (AMU)

    1     C                12.00000
    2     C                12.00000
    3     C                12.00000
    4     O                15.99491
    5     H                 1.00782
    6     H                 1.00782
    7     H                 1.00782
    8     H                 1.00782

 MODES    1 TO    6 ARE TAKEN AS ROTATIONS AND TRANSLATIONS.

 ANALYZING SYMMETRY OF NORMAL MODES...

     FREQUENCIES IN CM**-1, IR INTENSITIES IN DEBYE**2/AMU-ANGSTROM**2,
     REDUCED MASSES IN AMU.

                            1           2           3           4           5
       FREQUENCY:         8.27        8.03        6.78        0.02        0.04  
        SYMMETRY:         A           A           A           A           A   
    REDUCED MASS:      4.27123     2.52994     2.66318     7.00083     6.98983
    IR INTENSITY:      0.08720     0.10166     0.01233     0.00000     0.00000

  1   C            X -0.05149176  0.03271888  0.01367779  0.10487026  0.00586553
                   Y -0.02549822  0.03283737  0.04033502 -0.05334197  0.10654414
                   Z  0.03146987  0.04671232  0.12846438  0.06294975  0.07992816
  2   C            X -0.05691788  0.00194798  0.00952921  0.10488435  0.00584416
                   Y -0.15787203  0.01649398  0.01931148 -0.05367792  0.10732003
                   Z -0.01066355 -0.15036896  0.10078170  0.06302640  0.07984505
  3   C            X  0.04656628 -0.02384697 -0.01139201  0.10524090  0.00529394
                   Y  0.02914157 -0.02530893 -0.03102839 -0.05302881  0.10639319
                   Z -0.02689071 -0.03809499 -0.11188994  0.06323393  0.08098611
  4   O            X  0.05417886 -0.00514524 -0.00963049  0.10524515  0.00528270
                   Y  0.14612558 -0.01934400 -0.02262131 -0.05271396  0.10572972
                   Z  0.00781467  0.13352728 -0.09829307  0.06316717  0.08110827
  5   H            X -0.11861727  0.09922041  0.03598605  0.10459373  0.00628430
                   Y  0.04688330  0.08812167  0.10908269 -0.05328753  0.10600001
                   Z  0.10991916  0.27657813  0.32709287  0.06267056  0.07922422
  6   H            X  0.01109522 -0.06564696 -0.01346915  0.10517780  0.00540741
                   Y -0.22859157 -0.03967882 -0.05048347 -0.05372425  0.10785578
                   Z -0.08911022 -0.37864465 -0.09969052  0.06330314  0.08055656
  7   H            X -0.12863766  0.04201884  0.02866768  0.10462166  0.00624447
                   Y -0.20069676  0.05763940  0.06995751 -0.05391703  0.10744967
                   Z  0.03103034 -0.09221040  0.27519138  0.06281315  0.07906993
  8   H            X  0.11550754 -0.08680592 -0.03212522  0.10551787  0.00486200
                   Y -0.04605200 -0.07659623 -0.09504868 -0.05309466  0.10693850
                   Z -0.10744756 -0.27713390 -0.31354545  0.06351574  0.08168615

 TRANS. SAYVETZ    X  0.00286933  0.03623970  0.00694955  5.88652963  0.31151644
                   Y  0.05471171  0.00858020  0.01536193 -2.97943756  5.96582058
                   Z -0.00406123 -0.04036225  0.02661242  3.53515101  4.50947637
               TOTAL  0.05493721  0.05491855  0.03150406  7.48502317  7.48488041

   ROT. SAYVETZ    X -1.56692828  1.53839725 -9.54824942  0.00947870  0.04836612
                   Y  0.08901763 14.24112145-11.53039595  0.00715939  0.07390142
                   Z-19.92525368  3.76081892  3.51325835 -0.06569457  0.10450820
               TOTAL 19.98696882 14.80945526 15.37732363  0.06675986  0.13683079

                            6           7           8           9          10
       FREQUENCY:         0.06      174.22      320.50      571.59      611.06  
        SYMMETRY:         A           A           A           A           A   
    REDUCED MASS:      7.01976     3.46302     2.69565     4.63925     1.19751
    IR INTENSITY:      0.00001     0.09397     0.22087     0.13719     0.17662

  1   C            X -0.08231917 -0.01698998  0.02384343 -0.09233290 -0.02768097
                   Y -0.06057795 -0.03820124  0.12955660  0.02479019 -0.03069705
                   Z  0.08631160 -0.12008139 -0.04689736  0.01747307 -0.10347829
  2   C            X -0.08255230  0.01670988  0.03727185 -0.12236776 -0.01418125
                   Y -0.06119414  0.03007459 -0.09937059  0.04097068  0.00933433
                   Z  0.08478916  0.09811204  0.02646808  0.00318831  0.01320679
  3   C            X -0.08231018 -0.01616827 -0.01800167  0.09916420  0.01643026
                   Y -0.06071555 -0.03933306  0.10189123  0.04381437  0.01385973
                   Z  0.08568065 -0.12496416 -0.02690065 -0.03173170  0.02229134
  4   O            X -0.08215076  0.01210975 -0.02375986  0.11370670  0.01571962
                   Y -0.06022430  0.03714490 -0.09321642 -0.10224015 -0.01305764
                   Z  0.08699649  0.11494859  0.03201824  0.01842096  0.00147017
  5   H            X -0.08213239 -0.02581956 -0.07660106 -0.22805370  0.01476423
                   Y -0.05996361 -0.05304799  0.18362900  0.08486194  0.10982811
                   Z  0.08806399 -0.16885494 -0.05522451 -0.04404010  0.29671426
  6   H            X -0.08273906  0.03168954  0.26490744 -0.21050159 -0.09744879
                   Y -0.06180580  0.05701018 -0.22455268  0.11448888 -0.12893323
                   Z  0.08304662  0.18371299  0.03647212  0.06246767 -0.43493345
  7   H            X -0.08256345  0.03415235 -0.17229678 -0.05407358  0.08108684
                   Y -0.06111300  0.06820797 -0.23631753  0.07266009  0.19243413
                   Z  0.08521478  0.21901872  0.09967382 -0.09661191  0.55201054
  8   H            X -0.08246271 -0.03631568 -0.15230044  0.06361706  0.05494245
                   Y -0.06131436 -0.09673557  0.18401778  0.04610208  0.12327225
                   Z  0.08385753 -0.30848340 -0.02551338 -0.08235370  0.37237759

 TRANS. SAYVETZ    X -4.61265288  0.00004960 -0.00003081 -0.00007796  0.00001243
                   Y -3.39924162 -0.00014477 -0.00001417  0.00018321  0.00003033
                   Z  4.81572282  0.00019967  0.00001132  0.00000348  0.00007402
               TOTAL  7.48482442  0.00025157  0.00003575  0.00019914  0.00008095

   ROT. SAYVETZ    X  0.01208930 -0.00679362 -0.04400943 -0.00332810  0.00087879
                   Y  0.10869735 -0.02695784 -0.01890769 -0.00095091  0.00153199
                   Z -0.05433397 -0.01052731  0.01563797 -0.00039681 -0.00063946
               TOTAL  0.12212062  0.02972714  0.05038727  0.00348395  0.00187834

                           11          12          13          14          15
       FREQUENCY:       928.70      991.80     1022.70     1043.49     1180.13  
        SYMMETRY:         A           A           A           A           A   
    REDUCED MASS:      1.57918     1.34114     1.63040     1.17368     2.01179
    IR INTENSITY:      0.51208     0.83436     0.20132     0.19675     0.86657

  1   C            X  0.02724275  0.00490659  0.01634570 -0.00293413  0.00054606
                   Y -0.06671910  0.01050531  0.03620617 -0.00487503 -0.12682990
                   Z  0.01819341  0.03174071  0.10948966 -0.01868974  0.04053726
  2   C            X  0.05222796 -0.02125182 -0.00472978 -0.00265404 -0.02968550
                   Y -0.09101635 -0.04300535 -0.00796243 -0.00133143  0.03829929
                   Z  0.02023151 -0.13498625 -0.02548228 -0.00780706 -0.00758920
  3   C            X -0.02075243  0.00328550 -0.01544274 -0.01197904 -0.00856986
                   Y  0.11395128  0.00815260 -0.04239560 -0.03402544  0.14852513
                   Z -0.03450880  0.02788153 -0.12968132 -0.10158972 -0.04761000
  4   O            X -0.03040985 -0.00064908  0.00380407  0.00313075  0.00548408
                   Y -0.00615459 -0.00235601  0.01051169  0.00723251 -0.02349660
                   Z  0.00607393 -0.00778087  0.03220416  0.02262732  0.00721324
  5   H            X -0.21532672  0.00276304 -0.07466376  0.08515254  0.43811290
                   Y  0.07116101 -0.00159978 -0.15326218  0.18376761 -0.38419365
                   Z  0.01526187 -0.00068655 -0.48031432  0.56484603  0.05671741
  6   H            X -0.38968434  0.08802218 -0.02158786  0.06679290  0.15912266
                   Y  0.16654608  0.17349846 -0.04225453  0.13289296 -0.07121975
                   Z  0.01653689  0.53886129 -0.13120413  0.41248076 -0.00284669
  7   H            X  0.50984866  0.08694739  0.02113153 -0.04634134 -0.18711940
                   Y  0.20294894  0.18693720  0.04661257 -0.08425055 -0.06625836
                   Z -0.14327067  0.58389357  0.14417812 -0.25184540  0.05065013
  8   H            X -0.12131589 -0.01192489  0.06031800  0.05388195 -0.04814451
                   Y  0.17828776 -0.03153196  0.15057621  0.13185359  0.18021561
                   Z -0.03155188 -0.10122096  0.50008055  0.44054084 -0.04439790

 TRANS. SAYVETZ    X  0.00004432  0.00000638  0.00000605  0.00000339  0.00000989
                   Y -0.00006493  0.00001162 -0.00000377  0.00001457 -0.00001987
                   Z  0.00000229  0.00001309  0.00001182  0.00002994  0.00002518
               TOTAL  0.00007865  0.00001863  0.00001380  0.00003347  0.00003357

   ROT. SAYVETZ    X -0.00140288  0.00391242  0.00057346  0.00105127 -0.00020942
                   Y -0.00088440  0.00027356 -0.00124523 -0.00267526 -0.00031904
                   Z -0.00157872 -0.00067721 -0.00023522  0.00110730 -0.00076892
               TOTAL  0.00228967  0.00398001  0.00139096  0.00308030  0.00085841

                           16          17          18          19          20
       FREQUENCY:      1308.44     1409.44     1474.36     1700.36     1804.72  
        SYMMETRY:         A           A           A           A           A   
    REDUCED MASS:      1.47957     1.19623     1.22509     4.01975     9.44738
    IR INTENSITY:      0.05468     0.13713     0.23512     0.05660     4.99939

  1   C            X  0.02125871 -0.07448570 -0.09209185  0.18117633 -0.03527696
                   Y  0.11713285  0.02400719  0.03126190 -0.02475407  0.00542592
                   Z -0.04136127  0.00392751  0.00351543 -0.01940039  0.00321116
  2   C            X -0.06364607  0.02460381 -0.02153321 -0.17774919  0.01073570
                   Y -0.08449826 -0.00787321 -0.01202252  0.00489584  0.00209927
                   Z  0.03708517 -0.00128375  0.00729068  0.02595611 -0.00245214
  3   C            X -0.00424741 -0.00577464  0.00090107  0.01879685  0.22207353
                   Y -0.01839291  0.05710376 -0.04772063  0.00381961 -0.02379923
                   Z  0.00620574 -0.01706293  0.01411426 -0.00291571 -0.01920393
  4   O            X  0.01076977 -0.04125401  0.04770034 -0.03475632 -0.14642250
                   Y -0.00148063 -0.03118970  0.01445966  0.00428995  0.00654819
                   Z -0.00085599  0.01452411 -0.01002551  0.00271263  0.01525649
  5   H            X  0.62928557  0.04811414  0.14947709 -0.07683348  0.06988404
                   Y -0.22131644 -0.05133363 -0.11007859  0.14901797 -0.04794004
                   Z -0.02378166  0.01080247  0.01345537 -0.03763615  0.00578319
  6   H            X -0.41193677  0.27896182  0.42236787  0.18667243 -0.01456453
                   Y  0.10641830 -0.13354274 -0.24689853 -0.21469839  0.01334970
                   Z  0.02995002  0.00042401  0.01446431  0.03995197 -0.00230727
  7   H            X  0.09579898  0.30227809  0.44796517  0.10856822 -0.00456959
                   Y  0.02923035  0.15728322  0.27299699  0.21112375 -0.00821972
                   Z -0.02490645 -0.09759513 -0.15846848 -0.08608478  0.00456180
  8   H            X  0.07118890  0.68808473 -0.43470558  0.06857332 -0.07891341
                   Y -0.06035934 -0.34943060  0.19375115 -0.02258791  0.13263303
                   Z  0.00933972  0.02755019 -0.00707192 -0.00264838 -0.03054974

 TRANS. SAYVETZ    X -0.00001161  0.00001520 -0.00004242 -0.00001036 -0.00001135
                   Y  0.00004790  0.00000251  0.00013599 -0.00002915 -0.00002489
                   Z -0.00000782  0.00000314 -0.00001027 -0.00002508 -0.00000087
               TOTAL  0.00004990  0.00001573  0.00014282  0.00003983  0.00002737

   ROT. SAYVETZ    X  0.00041180  0.00068904 -0.00067409 -0.00034137  0.00002746
                   Y  0.00229526  0.00143045 -0.00169426  0.00043047  0.00028964
                   Z -0.00067694 -0.00176521 -0.00026371 -0.00149803  0.00019030
               TOTAL  0.00242817  0.00237422  0.00184241  0.00159559  0.00034764

                           21          22          23          24
       FREQUENCY:      2897.28     3158.75     3195.67     3248.15  
        SYMMETRY:         A           A           A           A   
    REDUCED MASS:      1.08410     1.06030     1.09395     1.11471
    IR INTENSITY:      2.52837     0.15021     0.06650     0.18756

  1   C            X -0.00238035  0.00235466 -0.04215719 -0.00926701
                   Y  0.00143096 -0.00721698 -0.06496686 -0.01170842
                   Z -0.00012957  0.00196381  0.02738319  0.00519889
  2   C            X  0.00116106 -0.06211276  0.00830719  0.02139300
                   Y  0.00011940 -0.01829393  0.01702716 -0.08609012
                   Z -0.00022211  0.01565415 -0.00682078  0.02457655
  3   C            X -0.03567467  0.00056217 -0.00257074 -0.00044713
                   Y -0.06704805 -0.00139120  0.00108424  0.00013351
                   Z  0.02487446  0.00035755 -0.00003668  0.00000938
  4   O            X -0.00180299 -0.00050952  0.00090470  0.00012455
                   Y  0.00067549  0.00020833 -0.00012594  0.00000155
                   Z -0.00000039 -0.00000103 -0.00006124 -0.00001417
  5   H            X -0.00323081  0.04808340  0.44681169  0.07739069
                   Y -0.00540869  0.08305310  0.75854679  0.12812199
                   Z  0.00215157 -0.03413607 -0.31251005 -0.05309957
  6   H            X  0.00057107  0.36384173 -0.07581491  0.23612257
                   Y -0.01153328  0.65926439 -0.13662083  0.40241474
                   Z  0.00356086 -0.27102974  0.05617987 -0.16763039
  7   H            X  0.00297856  0.29789458  0.04622822 -0.45378092
                   Y  0.00521158 -0.43582787 -0.06582873  0.62760044
                   Z -0.00215363  0.09469801  0.01417102 -0.13239382
  8   H            X  0.46757688  0.00308092  0.00205979 -0.00076090
                   Y  0.78090050  0.01057724  0.00383194  0.00471403
                   Z -0.29556058 -0.00355506 -0.00127089 -0.00130160

 TRANS. SAYVETZ    X -0.00000912 -0.00002180 -0.00001263  0.00000649
                   Y  0.00002110  0.00005484  0.00003065 -0.00000509
                   Z -0.00001950 -0.00000799 -0.00000568 -0.00000746
               TOTAL  0.00003014  0.00005956  0.00003363  0.00001112

   ROT. SAYVETZ    X -0.00048496  0.00042742 -0.00008565  0.00008151
                   Y  0.00068437  0.00016038  0.00031579 -0.00000709
                   Z  0.00007712 -0.00024078  0.00000654  0.00004960
               TOTAL  0.00084231  0.00051613  0.00032727  0.00009568

 REFERENCE ON SAYVETZ CONDITIONS - A. SAYVETZ, J.CHEM.PHYS., 7, 383-389(1939).

 NOTE - THE MODES J,K ARE ORTHONORMALIZED ACCORDING TO
 SUM ON I   M(I) * (X(I,J)*X(I,K) + Y(I,J)*Y(I,K) + Z(I,J)*Z(I,K)) = DELTA(J,K)

  MODE FREQ(CM**-1)  SYMMETRY  RED. MASS  IR INTENS.
     1       8.270    A        4.271235    0.087196
     2       8.028    A        2.529945    0.101664
     3       6.778    A        2.663181    0.012331
     4       0.020    A        7.000825    0.000002
     5       0.044    A        6.989825    0.000004
     6       0.063    A        7.019758    0.000007
     7     174.220    A        3.463019    0.093965
     8     320.496    A        2.695646    0.220872
     9     571.587    A        4.639253    0.137189
    10     611.060    A        1.197510    0.176617
    11     928.698    A        1.579183    0.512083
    12     991.797    A        1.341136    0.834361
    13    1022.697    A        1.630399    0.201324
    14    1043.492    A        1.173683    0.196753
    15    1180.134    A        2.011789    0.866570
    16    1308.438    A        1.479566    0.054680
    17    1409.443    A        1.196235    0.137127
    18    1474.357    A        1.225086    0.235120
    19    1700.360    A        4.019754    0.056598
    20    1804.724    A        9.447380    4.999393
    21    2897.279    A        1.084104    2.528372
    22    3158.752    A        1.060296    0.150210
    23    3195.670    A        1.093949    0.066499
    24    3248.150    A        1.114714    0.187557

     -------------------------------
     THERMOCHEMISTRY AT T=  298.15 K
     -------------------------------

 USING IDEAL GAS, RIGID ROTOR, HARMONIC NORMAL MODE APPROXIMATIONS.
 P=  1.01325E+05 PASCAL.
 ALL FREQUENCIES ARE SCALED BY   1.00000
 THE MOMENTS OF INERTIA ARE (IN AMU*BOHR**2)
             37.65954           390.02127           427.62174
 THE ROTATIONAL SYMMETRY NUMBER IS  1.0
 THE ROTATIONAL CONSTANTS ARE (IN GHZ)
     47.87866     4.62305     4.21655
      7 -     24 VIBRATIONAL MODES ARE USED IN THERMOCHEMISTRY.
 THE HARMONIC ZERO POINT ENERGY IS (SCALED BY   1.000)
        0.061605 HARTREE/MOLECULE    13520.676941 CM**-1/MOLECULE 
       38.657594 KCAL/MOL              161.743373 KJ/MOL

               Q               LN Q
 ELEC.     1.00000E+00       0.000000
 TRANS.    1.64832E+07      16.617850
 ROT.      2.83696E+04      10.253073
 VIB.      2.62326E+00       0.964416
 TOT.      1.22669E+12      27.835339

              E         H         G         CV        CP        S
           KJ/MOL    KJ/MOL    KJ/MOL   J/MOL-K   J/MOL-K   J/MOL-K
 ELEC.      0.000     0.000     0.000     0.000     0.000     0.000
 TRANS.     3.718     6.197   -41.195    12.472    20.786   158.954
 ROT.       3.718     3.718   -25.417    12.472    12.472    97.720
 VIB.     165.745   165.745   159.353    32.432    32.432    21.439
 TOTAL    173.182   175.660    92.741    57.375    65.689   278.113
 VIB. THERMAL CORRECTION E(T)-E(0) = H(T)-H(0) =      4001.322 J/MOL

              E         H         G         CV        CP        S
         KCAL/MOL  KCAL/MOL  KCAL/MOL CAL/MOL-K CAL/MOL-K CAL/MOL-K
 ELEC.      0.000     0.000     0.000     0.000     0.000     0.000
 TRANS.     0.889     1.481    -9.846     2.981     4.968    37.991
 ROT.       0.889     0.889    -6.075     2.981     2.981    23.356
 VIB.      39.614    39.614    38.086     7.751     7.751     5.124
 TOTAL     41.391    41.984    22.166    13.713    15.700    66.470
 VIB. THERMAL CORRECTION E(T)-E(0) = H(T)-H(0) =       956.339 CAL/MOL
 ......END OF NORMAL COORDINATE ANALYSIS......
 STEP CPU TIME =     0.00 TOTAL CPU TIME =        761.4 (     12.7 MIN)
 TOTAL WALL CLOCK TIME=        798.9 SECONDS, CPU UTILIZATION IS    95.30%
               1080583  WORDS OF DYNAMIC MEMORY USED
 EXECUTION OF GAMESS TERMINATED NORMALLY Mon Oct  3 21:09:40 2022
 DDI: 263640 bytes (0.3 MB / 0 MWords) used by master data server.

 ----------------------------------------
 CPU timing information for all processes
 ========================================
 0: 756.11 + 5.368 = 761.379
 ----------------------------------------
 ddikick.x: exited gracefully.
----- accounting info -----
Files used on the master node chemcompute-node-2.novalocal were:
-rw-r--r--. 1 chemcomp chemcomp      985 Oct  3 20:56 /scratch/120457/460018.F05
-rw-rw-r--. 1 chemcomp chemcomp 65536000 Oct  3 21:09 /scratch/120457/460018.F10
-rw-rw-r--. 1 chemcomp chemcomp  4143136 Oct  3 21:09 /scratch/120457/460018.F22
Mon Oct  3 21:09:43 UTC 2022
0.093u 0.055s 13:22.35 0.0%	0+0k 8+208io 0pf+0w
Finishing Up...
Looking for IR data...
Looking for Raman data...
vibramans not found
Looking for thermodynamics data...
Looking for UV-Vis data...
chemcompute.org
{'UTCtimestamp': '2022-10-03T21:09:45.694785', 'cluster': 'jetstream2', 'clusterJobNumber': '120457', 'status': 'COMPLETE', 'nodeList': 'chemcompute-node-2'}
120457
